 VARIABLES = "X", "Y", "U", "V", "P"
 ZONE I=         101 , J=         101
  -5.00000024E-04  -2.50000012E-04   0.00000000       0.00000000       3.88350854E-05
  -5.00000024E-04   2.50000012E-04   9.82083566E-03   5.37885644E-04   4.27702616E-05
  -5.00000024E-04   7.50000007E-04   1.01799760E-02   4.47897823E-04   3.58835168E-05
  -5.00000024E-04   1.25000009E-03   1.01958672E-02   3.49964481E-04   3.11464646E-05
  -5.00000024E-04   1.75000005E-03   1.01487897E-02   2.75569531E-04   2.76497904E-05
  -5.00000024E-04   2.25000014E-03   1.01066213E-02   2.22258735E-04   2.49199093E-05
  -5.00000024E-04   2.75000022E-03   1.00774691E-02   1.83524462E-04   2.27112578E-05
  -5.00000024E-04   3.25000007E-03   1.00579569E-02   1.54546011E-04   2.08806978E-05
  -5.00000024E-04   3.75000015E-03   1.00445757E-02   1.32258298E-04   1.93355245E-05
  -5.00000024E-04   4.25000023E-03   1.00350846E-02   1.14715789E-04   1.80114912E-05
  -5.00000024E-04   4.75000031E-03   1.00281518E-02   1.00640347E-04   1.68623392E-05
  -5.00000024E-04   5.25000039E-03   1.00229606E-02   8.91602904E-05   1.58538824E-05
  -5.00000024E-04   5.75000048E-03   1.00189932E-02   7.96640743E-05   1.49603602E-05
  -5.00000024E-04   6.25000009E-03   1.00159058E-02   7.17111325E-05   1.41620021E-05
  -5.00000024E-04   6.75000018E-03   1.00134667E-02   6.49780413E-05   1.34433812E-05
  -5.00000024E-04   7.25000026E-03   1.00115109E-02   5.92223441E-05   1.27922904E-05
  -5.00000024E-04   7.75000034E-03   1.00099258E-02   5.42597336E-05   1.21989342E-05
  -5.00000024E-04   8.24999996E-03   1.00086238E-02   4.99475536E-05   1.16553574E-05
  -5.00000024E-04   8.75000004E-03   1.00075454E-02   4.61746786E-05   1.11550335E-05
  -5.00000024E-04   9.25000012E-03   1.00066438E-02   4.28527310E-05   1.06925554E-05
  -5.00000024E-04   9.75000020E-03   1.00058839E-02   3.99110468E-05   1.02633921E-05
  -5.00000024E-04   1.02500003E-02   1.00052375E-02   3.72923314E-05   9.86372379E-06
  -5.00000024E-04   1.07500004E-02   1.00046853E-02   3.49496186E-05   9.49031346E-06
  -5.00000024E-04   1.12500004E-02   1.00042094E-02   3.28450078E-05   9.14039083E-06
  -5.00000024E-04   1.17500005E-02   1.00037977E-02   3.09463394E-05   8.81156484E-06
  -5.00000024E-04   1.22500006E-02   1.00034382E-02   2.92270124E-05   8.50177003E-06
  -5.00000024E-04   1.27500007E-02   1.00031253E-02   2.76645951E-05   8.20920286E-06
  -5.00000024E-04   1.32500008E-02   1.00028478E-02   2.62404501E-05   7.93229901E-06
  -5.00000024E-04   1.37500009E-02   1.00026038E-02   2.49383556E-05   7.66966059E-06
  -5.00000024E-04   1.42500009E-02   1.00023877E-02   2.37442164E-05   7.42006887E-06
  -5.00000024E-04   1.47500010E-02   1.00021958E-02   2.26465108E-05   7.18243973E-06
  -5.00000024E-04   1.52500011E-02   1.00020226E-02   2.16349217E-05   6.95580775E-06
  -5.00000024E-04   1.57500003E-02   1.00018689E-02   2.07004214E-05   6.73930526E-06
  -5.00000024E-04   1.62500013E-02   1.00017302E-02   1.98352536E-05   6.53216421E-06
  -5.00000024E-04   1.67500004E-02   1.00016044E-02   1.90329938E-05   6.33368882E-06
  -5.00000024E-04   1.72500014E-02   1.00014918E-02   1.82873027E-05   6.14324608E-06
  -5.00000024E-04   1.77500006E-02   1.00013884E-02   1.75930272E-05   5.96026985E-06
  -5.00000024E-04   1.82500016E-02   1.00012943E-02   1.69456052E-05   5.78424624E-06
  -5.00000024E-04   1.87500007E-02   1.00012086E-02   1.63409713E-05   5.61470506E-06
  -5.00000024E-04   1.92500018E-02   1.00011313E-02   1.57752293E-05   5.45121566E-06
  -5.00000024E-04   1.97500009E-02   1.00010596E-02   1.52453413E-05   5.29339150E-06
  -5.00000024E-04   2.02500001E-02   1.00009944E-02   1.47480969E-05   5.14086923E-06
  -5.00000024E-04   2.07500011E-02   1.00009330E-02   1.42813196E-05   4.99332782E-06
  -5.00000024E-04   2.12500002E-02   1.00008780E-02   1.38422556E-05   4.85045712E-06
  -5.00000024E-04   2.17500012E-02   1.00008268E-02   1.34290412E-05   4.71198291E-06
  -5.00000024E-04   2.22500004E-02   1.00007784E-02   1.30395538E-05   4.57764236E-06
  -5.00000024E-04   2.27500014E-02   1.00007346E-02   1.26721989E-05   4.44720263E-06
  -5.00000024E-04   2.32500006E-02   1.00006936E-02   1.23253403E-05   4.32043862E-06
  -5.00000024E-04   2.37500016E-02   1.00006554E-02   1.19975557E-05   4.19714570E-06
  -5.00000024E-04   2.42500007E-02   1.00006200E-02   1.16874744E-05   4.07713333E-06
  -5.00000024E-04   2.47500017E-02   1.00005865E-02   1.13941633E-05   3.96022551E-06
  -5.00000024E-04   2.52500009E-02   1.00005558E-02   1.11161853E-05   3.84625037E-06
  -5.00000024E-04   2.57500019E-02   1.00005269E-02   1.08528920E-05   3.73505918E-06
  -5.00000024E-04   2.62500010E-02   1.00004990E-02   1.06031157E-05   3.62650167E-06
  -5.00000024E-04   2.67500021E-02   1.00004748E-02   1.03658767E-05   3.52044253E-06
  -5.00000024E-04   2.72500012E-02   1.00004505E-02   1.01407577E-05   3.41675968E-06
  -5.00000024E-04   2.77500022E-02   1.00004273E-02   9.92703463E-06   3.31532920E-06
  -5.00000024E-04   2.82500014E-02   1.00004058E-02   9.72381804E-06   3.21603579E-06
  -5.00000024E-04   2.87500005E-02   1.00003853E-02   9.53082326E-06   3.11877784E-06
  -5.00000024E-04   2.92500015E-02   1.00003667E-02   9.34739728E-06   3.02345029E-06
  -5.00000024E-04   2.97500007E-02   1.00003490E-02   9.17279885E-06   2.92995537E-06
  -5.00000024E-04   3.02500017E-02   1.00003323E-02   9.00657960E-06   2.83820873E-06
  -5.00000024E-04   3.07500008E-02   1.00003164E-02   8.84851124E-06   2.74812669E-06
  -5.00000024E-04   3.12500000E-02   1.00003006E-02   8.69813084E-06   2.65962603E-06
  -5.00000024E-04   3.17500010E-02   1.00002866E-02   8.55492999E-06   2.57262923E-06
  -5.00000024E-04   3.22500020E-02   1.00002717E-02   8.41874589E-06   2.48706669E-06
  -5.00000024E-04   3.27500030E-02   1.00002587E-02   8.28931843E-06   2.40286727E-06
  -5.00000024E-04   3.32500003E-02   1.00002456E-02   8.16618376E-06   2.31996069E-06
  -5.00000024E-04   3.37500013E-02   1.00002345E-02   8.04887259E-06   2.23828511E-06
  -5.00000024E-04   3.42500024E-02   1.00002233E-02   7.93737945E-06   2.15778459E-06
  -5.00000024E-04   3.47500034E-02   1.00002121E-02   7.83123869E-06   2.07839776E-06
  -5.00000024E-04   3.52500007E-02   1.00002009E-02   7.73046122E-06   2.00007389E-06
  -5.00000024E-04   3.57500017E-02   1.00001916E-02   7.63485332E-06   1.92275934E-06
  -5.00000024E-04   3.62500027E-02   1.00001814E-02   7.54413213E-06   1.84640089E-06
  -5.00000024E-04   3.67500000E-02   1.00001721E-02   7.45806256E-06   1.77094944E-06
  -5.00000024E-04   3.72500010E-02   1.00001637E-02   7.37641994E-06   1.69635848E-06
  -5.00000024E-04   3.77500020E-02   1.00001544E-02   7.29918656E-06   1.62258573E-06
  -5.00000024E-04   3.82500030E-02   1.00001460E-02   7.22615687E-06   1.54958525E-06
  -5.00000024E-04   3.87500003E-02   1.00001376E-02   7.15731858E-06   1.47731623E-06
  -5.00000024E-04   3.92500013E-02   1.00001302E-02   7.09219876E-06   1.40573366E-06
  -5.00000024E-04   3.97500023E-02   1.00001227E-02   7.03103615E-06   1.33480501E-06
  -5.00000024E-04   4.02500033E-02   1.00001153E-02   6.97357427E-06   1.26448720E-06
  -5.00000024E-04   4.07500006E-02   1.00001078E-02   6.91984360E-06   1.19474532E-06
  -5.00000024E-04   4.12500016E-02   1.00001004E-02   6.86960129E-06   1.12553960E-06
  -5.00000024E-04   4.17500027E-02   1.00000929E-02   6.82285963E-06   1.05683739E-06
  -5.00000024E-04   4.22500037E-02   1.00000873E-02   6.77934850E-06   9.88601300E-07
  -5.00000024E-04   4.27500010E-02   1.00000799E-02   6.73909562E-06   9.20800801E-07
  -5.00000024E-04   4.32500020E-02   1.00000743E-02   6.70210193E-06   8.53403321E-07
  -5.00000024E-04   4.37500030E-02   1.00000678E-02   6.66813639E-06   7.86374642E-07
  -5.00000024E-04   4.42500003E-02   1.00000612E-02   6.63742458E-06   7.19687648E-07
  -5.00000024E-04   4.47500013E-02   1.00000557E-02   6.60949445E-06   6.53304880E-07
  -5.00000024E-04   4.52500023E-02   1.00000501E-02   6.58459612E-06   5.87204056E-07
  -5.00000024E-04   4.57500033E-02   1.00000435E-02   6.56272141E-06   5.21352888E-07
  -5.00000024E-04   4.62500006E-02   1.00000370E-02   6.54387622E-06   4.55720880E-07
  -5.00000024E-04   4.67500016E-02   1.00000314E-02   6.52782501E-06   3.90275972E-07
  -5.00000024E-04   4.72500026E-02   1.00000259E-02   6.51456457E-06   3.24991959E-07
  -5.00000024E-04   4.77500036E-02   1.00000203E-02   6.50433367E-06   2.59842636E-07
  -5.00000024E-04   4.82500009E-02   1.00000147E-02   6.49665662E-06   1.94792065E-07
  -5.00000024E-04   4.87500019E-02   1.00000100E-02   6.49154026E-06   1.29818289E-07
  -5.00000024E-04   4.92500030E-02   1.00000054E-02   6.48874993E-06   6.48943157E-08
  -5.00000024E-04   4.97500040E-02   1.00000054E-02   6.48874993E-06   3.24471578E-08
   5.00000024E-04  -2.50000012E-04   0.00000000       0.00000000       3.17328049E-05
   5.00000024E-04   2.50000012E-04   8.49237200E-03   1.14348507E-03   3.09528805E-05
   5.00000024E-04   7.50000007E-04   1.02077760E-02   1.21957390E-03   2.87332732E-05
   5.00000024E-04   1.25000009E-03   1.06514608E-02   1.08971121E-03   2.63447164E-05
   5.00000024E-04   1.75000005E-03   1.06344018E-02   9.21300671E-04   2.42289861E-05
   5.00000024E-04   2.25000014E-03   1.05101215E-02   7.72861938E-04   2.24054838E-05
   5.00000024E-04   2.75000022E-03   1.03922645E-02   6.54199044E-04   2.08200308E-05
   5.00000024E-04   3.25000007E-03   1.03025185E-02   5.60896937E-04   1.94279182E-05
   5.00000024E-04   3.75000015E-03   1.02372887E-02   4.86828794E-04   1.81972355E-05
   5.00000024E-04   4.25000023E-03   1.01896096E-02   4.27109451E-04   1.71033753E-05
   5.00000024E-04   4.75000031E-03   1.01540601E-02   3.78231256E-04   1.61261250E-05
   5.00000024E-04   5.25000039E-03   1.01269968E-02   3.37693229E-04   1.52485136E-05
   5.00000024E-04   5.75000048E-03   1.01060076E-02   3.03682697E-04   1.44563228E-05
   5.00000024E-04   6.25000009E-03   1.00894682E-02   2.74854799E-04   1.37376501E-05
   5.00000024E-04   6.75000018E-03   1.00762499E-02   2.50196375E-04   1.30825629E-05
   5.00000024E-04   7.25000026E-03   1.00655537E-02   2.28931342E-04   1.24827648E-05
   5.00000024E-04   7.75000034E-03   1.00568011E-02   2.10456434E-04   1.19312836E-05
   5.00000024E-04   8.24999996E-03   1.00495666E-02   1.94297550E-04   1.14222394E-05
   5.00000024E-04   8.75000004E-03   1.00435326E-02   1.80077608E-04   1.09506545E-05
   5.00000024E-04   9.25000012E-03   1.00384559E-02   1.67493679E-04   1.05122945E-05
   5.00000024E-04   9.75000020E-03   1.00341551E-02   1.56299895E-04   1.01035339E-05
   5.00000024E-04   1.02500003E-02   1.00304838E-02   1.46295934E-04   9.72125235E-06
   5.00000024E-04   1.07500004E-02   1.00273313E-02   1.37315801E-04   9.36275592E-06
   5.00000024E-04   1.12500004E-02   1.00246063E-02   1.29222433E-04   9.02569627E-06
   5.00000024E-04   1.17500005E-02   1.00222379E-02   1.21901161E-04   8.70803524E-06
   5.00000024E-04   1.22500006E-02   1.00201704E-02   1.15254858E-04   8.40797657E-06
   5.00000024E-04   1.27500007E-02   1.00183561E-02   1.09202083E-04   8.12394410E-06
   5.00000024E-04   1.32500008E-02   1.00167552E-02   1.03672923E-04   7.85454449E-06
   5.00000024E-04   1.37500009E-02   1.00153396E-02   9.86076775E-05   7.59854265E-06
   5.00000024E-04   1.42500009E-02   1.00140814E-02   9.39554302E-05   7.35484628E-06
   5.00000024E-04   1.47500010E-02   1.00129582E-02   8.96719066E-05   7.12246765E-06
   5.00000024E-04   1.52500011E-02   1.00119533E-02   8.57185660E-05   6.90052912E-06
   5.00000024E-04   1.57500003E-02   1.00110509E-02   8.20624482E-05   6.68824305E-06
   5.00000024E-04   1.62500013E-02   1.00102378E-02   7.86739620E-05   6.48489231E-06
   5.00000024E-04   1.67500004E-02   1.00095030E-02   7.55271612E-05   6.28983298E-06
   5.00000024E-04   1.72500014E-02   1.00088371E-02   7.26002181E-05   6.10249026E-06
   5.00000024E-04   1.77500006E-02   1.00082327E-02   6.98724252E-05   5.92232254E-06
   5.00000024E-04   1.82500016E-02   1.00076823E-02   6.73263421E-05   5.74885507E-06
   5.00000024E-04   1.87500007E-02   1.00071793E-02   6.49459689E-05   5.58164311E-06
   5.00000024E-04   1.92500018E-02   1.00067193E-02   6.27178379E-05   5.42029056E-06
   5.00000024E-04   1.97500009E-02   1.00062974E-02   6.06289977E-05   5.26442273E-06
   5.00000024E-04   2.02500001E-02   1.00059099E-02   5.86686547E-05   5.11370263E-06
   5.00000024E-04   2.07500011E-02   1.00055523E-02   5.68262294E-05   4.96781104E-06
   5.00000024E-04   2.12500002E-02   1.00052226E-02   5.50930854E-05   4.82646783E-06
   5.00000024E-04   2.17500012E-02   1.00049181E-02   5.34606625E-05   4.68939970E-06
   5.00000024E-04   2.22500004E-02   1.00046368E-02   5.19212081E-05   4.55636155E-06
   5.00000024E-04   2.27500014E-02   1.00043751E-02   5.04685377E-05   4.42712917E-06
   5.00000024E-04   2.32500006E-02   1.00041321E-02   4.90963539E-05   4.30148702E-06
   5.00000024E-04   2.37500016E-02   1.00039057E-02   4.77990725E-05   4.17923957E-06
   5.00000024E-04   2.42500007E-02   1.00036953E-02   4.65717640E-05   4.06020081E-06
   5.00000024E-04   2.47500017E-02   1.00034978E-02   4.54095607E-05   3.94419794E-06
   5.00000024E-04   2.52500009E-02   1.00033134E-02   4.43088102E-05   3.83107636E-06
   5.00000024E-04   2.57500019E-02   1.00031411E-02   4.32649176E-05   3.72067620E-06
   5.00000024E-04   2.62500010E-02   1.00029800E-02   4.22745943E-05   3.61286493E-06
   5.00000024E-04   2.67500021E-02   1.00028291E-02   4.13344751E-05   3.50750793E-06
   5.00000024E-04   2.72500012E-02   1.00026857E-02   4.04418788E-05   3.40448128E-06
   5.00000024E-04   2.77500022E-02   1.00025516E-02   3.95934949E-05   3.30366424E-06
   5.00000024E-04   2.82500014E-02   1.00024249E-02   3.87874934E-05   3.20495587E-06
   5.00000024E-04   2.87500005E-02   1.00023048E-02   3.80210913E-05   3.10824362E-06
   5.00000024E-04   2.92500015E-02   1.00021921E-02   3.72918912E-05   3.01343425E-06
   5.00000024E-04   2.97500007E-02   1.00020850E-02   3.65985907E-05   2.92043887E-06
   5.00000024E-04   3.02500017E-02   1.00019835E-02   3.59392761E-05   2.82916562E-06
   5.00000024E-04   3.07500008E-02   1.00018876E-02   3.53116266E-05   2.73952355E-06
   5.00000024E-04   3.12500000E-02   1.00017963E-02   3.47143214E-05   2.65144058E-06
   5.00000024E-04   3.17500010E-02   1.00017097E-02   3.41458472E-05   2.56484009E-06
   5.00000024E-04   3.22500020E-02   1.00016268E-02   3.36049488E-05   2.47964977E-06
   5.00000024E-04   3.27500030E-02   1.00015486E-02   3.30896619E-05   2.39580072E-06
   5.00000024E-04   3.32500003E-02   1.00014731E-02   3.25995352E-05   2.31323634E-06
   5.00000024E-04   3.37500013E-02   1.00014014E-02   3.21336120E-05   2.23189363E-06
   5.00000024E-04   3.42500024E-02   1.00013334E-02   3.16900769E-05   2.15170417E-06
   5.00000024E-04   3.47500034E-02   1.00012682E-02   3.12683369E-05   2.07261974E-06
   5.00000024E-04   3.52500007E-02   1.00012049E-02   3.08674971E-05   1.99458236E-06
   5.00000024E-04   3.57500017E-02   1.00011434E-02   3.04871901E-05   1.91754361E-06
   5.00000024E-04   3.62500027E-02   1.00010857E-02   3.01259333E-05   1.84144824E-06
   5.00000024E-04   3.67500000E-02   1.00010298E-02   2.97833230E-05   1.76625292E-06
   5.00000024E-04   3.72500010E-02   1.00009758E-02   2.94588663E-05   1.69191117E-06
   5.00000024E-04   3.77500020E-02   1.00009236E-02   2.91516462E-05   1.61837477E-06
   5.00000024E-04   3.82500030E-02   1.00008734E-02   2.88611664E-05   1.54560223E-06
   5.00000024E-04   3.87500003E-02   1.00008240E-02   2.85870083E-05   1.47355217E-06
   5.00000024E-04   3.92500013E-02   1.00007784E-02   2.83282316E-05   1.40218333E-06
   5.00000024E-04   3.97500023E-02   1.00007327E-02   2.80843487E-05   1.33145772E-06
   5.00000024E-04   4.02500033E-02   1.00006871E-02   2.78558728E-05   1.26134375E-06
   5.00000024E-04   4.07500006E-02   1.00006433E-02   2.76418305E-05   1.19179526E-06
   5.00000024E-04   4.12500016E-02   1.00006014E-02   2.74417580E-05   1.12277939E-06
   5.00000024E-04   4.17500027E-02   1.00005604E-02   2.72552134E-05   1.05426068E-06
   5.00000024E-04   4.22500037E-02   1.00005213E-02   2.70816745E-05   9.86206601E-07
   5.00000024E-04   4.27500010E-02   1.00004813E-02   2.69216616E-05   9.18588114E-07
   5.00000024E-04   4.32500020E-02   1.00004440E-02   2.67737541E-05   8.51363325E-07
   5.00000024E-04   4.37500030E-02   1.00004058E-02   2.66388706E-05   7.84512906E-07
   5.00000024E-04   4.42500003E-02   1.00003686E-02   2.65160834E-05   7.17994567E-07
   5.00000024E-04   4.47500013E-02   1.00003323E-02   2.64058563E-05   6.51785456E-07
   5.00000024E-04   4.52500023E-02   1.00002969E-02   2.63072561E-05   5.85845044E-07
   5.00000024E-04   4.57500033E-02   1.00002615E-02   2.62202593E-05   5.20148944E-07
   5.00000024E-04   4.62500006E-02   1.00002261E-02   2.61449004E-05   4.54669532E-07
   5.00000024E-04   4.67500016E-02   1.00001916E-02   2.60811703E-05   3.89378954E-07
   5.00000024E-04   4.72500026E-02   1.00001572E-02   2.60290581E-05   3.24246770E-07
   5.00000024E-04   4.77500036E-02   1.00001246E-02   2.59871831E-05   2.59237567E-07
   5.00000024E-04   4.82500009E-02   1.00000920E-02   2.59564658E-05   1.94339123E-07
   5.00000024E-04   4.87500019E-02   1.00000612E-02   2.59359804E-05   1.29514532E-07
   5.00000024E-04   4.92500030E-02   1.00000361E-02   2.59234130E-05   6.47332214E-08
   5.00000024E-04   4.97500040E-02   1.00000361E-02   2.59234130E-05   3.23666107E-08
   1.50000001E-03  -2.50000012E-04   0.00000000       0.00000000       2.19091617E-05
   1.50000001E-03   2.50000012E-04   7.27293454E-03   9.04470799E-04   2.25121094E-05
   1.50000001E-03   7.50000007E-04   9.64295305E-03   1.18688284E-03   2.22037506E-05
   1.50000001E-03   1.25000009E-03   1.06078507E-02   1.20868837E-03   2.13939747E-05
   1.50000001E-03   1.75000005E-03   1.08359447E-02   1.10791728E-03   2.03987711E-05
   1.50000001E-03   2.25000014E-03   1.07746404E-02   9.75657895E-04   1.93869782E-05
   1.50000001E-03   2.75000022E-03   1.06412321E-02   8.51174351E-04   1.84120472E-05
   1.50000001E-03   3.25000007E-03   1.05147231E-02   7.45072321E-04   1.74873021E-05
   1.50000001E-03   3.75000015E-03   1.04134250E-02   6.57004537E-04   1.66170830E-05
   1.50000001E-03   4.25000023E-03   1.03358161E-02   5.83901885E-04   1.58031053E-05
   1.50000001E-03   4.75000031E-03   1.02764312E-02   5.22716437E-04   1.50450469E-05
   1.50000001E-03   5.25000039E-03   1.02304118E-02   4.71008912E-04   1.43408479E-05
   1.50000001E-03   5.75000048E-03   1.01941992E-02   4.26913524E-04   1.36872895E-05
   1.50000001E-03   6.25000009E-03   1.01652918E-02   3.89001885E-04   1.30806029E-05
   1.50000001E-03   6.75000018E-03   1.01419184E-02   3.56167875E-04   1.25168681E-05
   1.50000001E-03   7.25000026E-03   1.01228058E-02   3.27542046E-04   1.19922624E-05
   1.50000001E-03   7.75000034E-03   1.01070199E-02   3.02432833E-04   1.15031989E-05
   1.50000001E-03   8.24999996E-03   1.00938622E-02   2.80285167E-04   1.10463852E-05
   1.50000001E-03   8.75000004E-03   1.00828046E-02   2.60649511E-04   1.06188336E-05
   1.50000001E-03   9.25000012E-03   1.00734401E-02   2.43157483E-04   1.02178465E-05
   1.50000001E-03   9.75000020E-03   1.00654569E-02   2.27506738E-04   9.84101462E-06
   1.50000001E-03   1.02500003E-02   1.00586060E-02   2.13445906E-04   9.48616798E-06
   1.50000001E-03   1.07500004E-02   1.00526940E-02   2.00764800E-04   9.15137298E-06
   1.50000001E-03   1.12500004E-02   1.00475615E-02   1.89287399E-04   8.83490247E-06
   1.50000001E-03   1.17500005E-02   1.00430837E-02   1.78864662E-04   8.53520942E-06
   1.50000001E-03   1.22500006E-02   1.00391582E-02   1.69370876E-04   8.25091320E-06
   1.50000001E-03   1.27500007E-02   1.00357030E-02   1.60697527E-04   7.98076235E-06
   1.50000001E-03   1.32500008E-02   1.00326473E-02   1.52751672E-04   7.72364001E-06
   1.50000001E-03   1.37500009E-02   1.00299343E-02   1.45454498E-04   7.47854892E-06
   1.50000001E-03   1.42500009E-02   1.00275176E-02   1.38736519E-04   7.24456640E-06
   1.50000001E-03   1.47500010E-02   1.00253569E-02   1.32537316E-04   7.02087345E-06
   1.50000001E-03   1.52500011E-02   1.00234188E-02   1.26804633E-04   6.80672565E-06
   1.50000001E-03   1.57500003E-02   1.00216744E-02   1.21493074E-04   6.60145042E-06
   1.50000001E-03   1.62500013E-02   1.00200996E-02   1.16562274E-04   6.40442840E-06
   1.50000001E-03   1.67500004E-02   1.00186747E-02   1.11976551E-04   6.21510026E-06
   1.50000001E-03   1.72500014E-02   1.00173820E-02   1.07704269E-04   6.03294939E-06
   1.50000001E-03   1.77500006E-02   1.00162057E-02   1.03717830E-04   5.85751332E-06
   1.50000001E-03   1.82500016E-02   1.00151328E-02   9.99925032E-05   5.68835912E-06
   1.50000001E-03   1.87500007E-02   1.00141522E-02   9.65061627E-05   5.52509118E-06
   1.50000001E-03   1.92500018E-02   1.00132544E-02   9.32387265E-05   5.36734387E-06
   1.50000001E-03   1.97500009E-02   1.00124292E-02   9.01728490E-05   5.21478796E-06
   1.50000001E-03   2.02500001E-02   1.00116702E-02   8.72928358E-05   5.06711149E-06
   1.50000001E-03   2.07500011E-02   1.00109708E-02   8.45837640E-05   4.92402614E-06
   1.50000001E-03   2.12500002E-02   1.00103244E-02   8.20329442E-05   4.78526908E-06
   1.50000001E-03   2.17500012E-02   1.00097265E-02   7.96288441E-05   4.65059884E-06
   1.50000001E-03   2.22500004E-02   1.00091733E-02   7.73606298E-05   4.51978121E-06
   1.50000001E-03   2.27500014E-02   1.00086601E-02   7.52182823E-05   4.39260384E-06
   1.50000001E-03   2.32500006E-02   1.00081824E-02   7.31932378E-05   4.26887118E-06
   1.50000001E-03   2.37500016E-02   1.00077372E-02   7.12775654E-05   4.14840315E-06
   1.50000001E-03   2.42500007E-02   1.00073218E-02   6.94643531E-05   4.03102513E-06
   1.50000001E-03   2.47500017E-02   1.00069335E-02   6.77466742E-05   3.91657477E-06
   1.50000001E-03   2.52500009E-02   1.00065703E-02   6.61183076E-05   3.80489905E-06
   1.50000001E-03   2.57500019E-02   1.00062303E-02   6.45738037E-05   3.69586087E-06
   1.50000001E-03   2.62500010E-02   1.00059118E-02   6.31080402E-05   3.58932516E-06
   1.50000001E-03   2.67500021E-02   1.00056129E-02   6.17162732E-05   3.48516551E-06
   1.50000001E-03   2.72500012E-02   1.00053307E-02   6.03938897E-05   3.38326277E-06
   1.50000001E-03   2.77500022E-02   1.00050652E-02   5.91371427E-05   3.28350870E-06
   1.50000001E-03   2.82500014E-02   1.00048147E-02   5.79423140E-05   3.18579487E-06
   1.50000001E-03   2.87500005E-02   1.00045782E-02   5.68057258E-05   3.09002439E-06
   1.50000001E-03   2.92500015E-02   1.00043546E-02   5.57245476E-05   2.99610520E-06
   1.50000001E-03   2.97500007E-02   1.00041423E-02   5.46959600E-05   2.90394564E-06
   1.50000001E-03   3.02500017E-02   1.00039421E-02   5.37167725E-05   2.81345933E-06
   1.50000001E-03   3.07500008E-02   1.00037521E-02   5.27846278E-05   2.72457305E-06
   1.50000001E-03   3.12500000E-02   1.00035714E-02   5.18971574E-05   2.63720904E-06
   1.50000001E-03   3.17500010E-02   1.00033991E-02   5.10525206E-05   2.55129748E-06
   1.50000001E-03   3.22500020E-02   1.00032352E-02   5.02483672E-05   2.46676450E-06
   1.50000001E-03   3.27500030E-02   1.00030787E-02   4.94832420E-05   2.38355005E-06
   1.50000001E-03   3.32500003E-02   1.00029297E-02   4.87550060E-05   2.30158253E-06
   1.50000001E-03   3.37500013E-02   1.00027872E-02   4.80621493E-05   2.22080530E-06
   1.50000001E-03   3.42500024E-02   1.00026522E-02   4.74028238E-05   2.14116199E-06
   1.50000001E-03   3.47500034E-02   1.00025218E-02   4.67761020E-05   2.06259847E-06
   1.50000001E-03   3.52500007E-02   1.00023970E-02   4.61800992E-05   1.98505882E-06
   1.50000001E-03   3.57500017E-02   1.00022759E-02   4.56139605E-05   1.90849528E-06
   1.50000001E-03   3.62500027E-02   1.00021604E-02   4.50766020E-05   1.83286181E-06
   1.50000001E-03   3.67500000E-02   1.00020487E-02   4.45671976E-05   1.75810897E-06
   1.50000001E-03   3.72500010E-02   1.00019416E-02   4.40843396E-05   1.68418819E-06
   1.50000001E-03   3.77500020E-02   1.00018382E-02   4.36270930E-05   1.61105879E-06
   1.50000001E-03   3.82500030E-02   1.00017386E-02   4.31945155E-05   1.53867882E-06
   1.50000001E-03   3.87500003E-02   1.00016408E-02   4.27861560E-05   1.46701109E-06
   1.50000001E-03   3.92500013E-02   1.00015476E-02   4.24015307E-05   1.39601468E-06
   1.50000001E-03   3.97500023E-02   1.00014573E-02   4.20392716E-05   1.32564435E-06
   1.50000001E-03   4.02500033E-02   1.00013688E-02   4.16984367E-05   1.25586507E-06
   1.50000001E-03   4.07500006E-02   1.00012822E-02   4.13790185E-05   1.18664980E-06
   1.50000001E-03   4.12500016E-02   1.00011984E-02   4.10805405E-05   1.11796169E-06
   1.50000001E-03   4.17500027E-02   1.00011174E-02   4.08021042E-05   1.04976482E-06
   1.50000001E-03   4.22500037E-02   1.00010373E-02   4.05441497E-05   9.82030201E-07
   1.50000001E-03   4.27500010E-02   1.00009590E-02   4.03052800E-05   9.14714349E-07
   1.50000001E-03   4.32500020E-02   1.00008827E-02   4.00859535E-05   8.47795206E-07
   1.50000001E-03   4.37500030E-02   1.00008082E-02   3.98847951E-05   7.81228948E-07
   1.50000001E-03   4.42500003E-02   1.00007346E-02   3.97017975E-05   7.14994883E-07
   1.50000001E-03   4.47500013E-02   1.00006619E-02   3.95369643E-05   6.49062770E-07
   1.50000001E-03   4.52500023E-02   1.00005912E-02   3.93898299E-05   5.83403278E-07
   1.50000001E-03   4.57500033E-02   1.00005204E-02   3.92603870E-05   5.17987189E-07
   1.50000001E-03   4.62500006E-02   1.00004505E-02   3.91481844E-05   4.52782558E-07
   1.50000001E-03   4.67500016E-02   1.00003816E-02   3.90532150E-05   3.87762242E-07
   1.50000001E-03   4.72500026E-02   1.00003146E-02   3.89745401E-05   3.22895090E-07
   1.50000001E-03   4.77500036E-02   1.00002484E-02   3.89126362E-05   2.58163027E-07
   1.50000001E-03   4.82500009E-02   1.00001842E-02   3.88665503E-05   1.93527683E-07
   1.50000001E-03   4.87500019E-02   1.00001255E-02   3.88344306E-05   1.28963066E-07
   1.50000001E-03   4.92500030E-02   1.00000771E-02   3.88139415E-05   6.44491536E-08
   1.50000001E-03   4.97500040E-02   1.00000771E-02   3.88139415E-05   3.22245768E-08
   2.50000018E-03  -2.50000012E-04   0.00000000       0.00000000       1.64161174E-05
   2.50000018E-03   2.50000012E-04   6.26127748E-03   6.60246413E-04   1.72258879E-05
   2.50000018E-03   7.50000007E-04   8.91568884E-03   1.02387846E-03   1.74750912E-05
   2.50000018E-03   1.25000009E-03   1.03155682E-02   1.17001997E-03   1.73714307E-05
   2.50000018E-03   1.75000005E-03   1.08547378E-02   1.16062385E-03   1.70275598E-05
   2.50000018E-03   2.25000014E-03   1.09431371E-02   1.07637537E-03   1.65564306E-05
   2.50000018E-03   2.75000022E-03   1.08524449E-02   9.70769324E-04   1.60274467E-05
   2.50000018E-03   3.25000007E-03   1.07186353E-02   8.68813600E-04   1.54732752E-05
   2.50000018E-03   3.75000015E-03   1.05938343E-02   7.78609246E-04   1.49108919E-05
   2.50000018E-03   4.25000023E-03   1.04911197E-02   7.00957549E-04   1.43517254E-05
   2.50000018E-03   4.75000031E-03   1.04096048E-02   6.34371070E-04   1.38041978E-05
   2.50000018E-03   5.25000039E-03   1.03451042E-02   5.77024941E-04   1.32741234E-05
   2.50000018E-03   5.75000048E-03   1.02936048E-02   5.27322292E-04   1.27650828E-05
   2.50000018E-03   6.25000009E-03   1.02519961E-02   4.83970507E-04   1.22788988E-05
   2.50000018E-03   6.75000018E-03   1.02179861E-02   4.45936923E-04   1.18161743E-05
   2.50000018E-03   7.25000026E-03   1.01898974E-02   4.12391353E-04   1.13767101E-05
   2.50000018E-03   7.75000034E-03   1.01664821E-02   3.82660510E-04   1.09598141E-05
   2.50000018E-03   8.24999996E-03   1.01467995E-02   3.56191886E-04   1.05644976E-05
   2.50000018E-03   8.75000004E-03   1.01301316E-02   3.32528405E-04   1.01896194E-05
   2.50000018E-03   9.25000012E-03   1.01159168E-02   3.11290292E-04   9.83398331E-06
   2.50000018E-03   9.75000020E-03   1.01037193E-02   2.92158977E-04   9.49637797E-06
   2.50000018E-03   1.02500003E-02   1.00931916E-02   2.74866412E-04   9.17562738E-06
   2.50000018E-03   1.07500004E-02   1.00840572E-02   2.59184948E-04   8.87059741E-06
   2.50000018E-03   1.12500004E-02   1.00760888E-02   2.44921423E-04   8.58022122E-06
   2.50000018E-03   1.17500005E-02   1.00691067E-02   2.31910002E-04   8.30349290E-06
   2.50000018E-03   1.22500006E-02   1.00629609E-02   2.20008777E-04   8.03948114E-06
   2.50000018E-03   1.27500007E-02   1.00575294E-02   2.09095640E-04   7.78732192E-06
   2.50000018E-03   1.32500008E-02   1.00527108E-02   1.99063928E-04   7.54620669E-06
   2.50000018E-03   1.37500009E-02   1.00484192E-02   1.89821585E-04   7.31539467E-06
   2.50000018E-03   1.42500009E-02   1.00445850E-02   1.81287978E-04   7.09420237E-06
   2.50000018E-03   1.47500010E-02   1.00411475E-02   1.73392793E-04   6.88200271E-06
   2.50000018E-03   1.52500011E-02   1.00380564E-02   1.66074213E-04   6.67820859E-06
   2.50000018E-03   1.57500003E-02   1.00352680E-02   1.59277639E-04   6.48228297E-06
   2.50000018E-03   1.62500013E-02   1.00327451E-02   1.52954977E-04   6.29372880E-06
   2.50000018E-03   1.67500004E-02   1.00304577E-02   1.47063634E-04   6.11208907E-06
   2.50000018E-03   1.72500014E-02   1.00283781E-02   1.41565732E-04   5.93693949E-06
   2.50000018E-03   1.77500006E-02   1.00264838E-02   1.36426883E-04   5.76788307E-06
   2.50000018E-03   1.82500016E-02   1.00247525E-02   1.31617140E-04   5.60456056E-06
   2.50000018E-03   1.87500007E-02   1.00231674E-02   1.27109714E-04   5.44663453E-06
   2.50000018E-03   1.92500018E-02   1.00217145E-02   1.22879777E-04   5.29379076E-06
   2.50000018E-03   1.97500009E-02   1.00203780E-02   1.18905453E-04   5.14574185E-06
   2.50000018E-03   2.02500001E-02   1.00191468E-02   1.15167328E-04   5.00221813E-06
   2.50000018E-03   2.07500011E-02   1.00180106E-02   1.11647561E-04   4.86297176E-06
   2.50000018E-03   2.12500002E-02   1.00169601E-02   1.08329819E-04   4.72776628E-06