 VARIABLES = "X", "Y", "U", "V", "P"
 ZONE I=         101 , J=         101
  -5.00000024E-04  -2.50000012E-04   0.00000000       0.00000000       3.88186818E-05
  -5.00000024E-04   2.50000012E-04   9.82084870E-03   5.37883316E-04   4.27483792E-05
  -5.00000024E-04   7.50000007E-04   1.01799890E-02   4.47893428E-04   3.58616453E-05
  -5.00000024E-04   1.25000009E-03   1.01958793E-02   3.49958602E-04   3.11246295E-05
  -5.00000024E-04   1.75000005E-03   1.01488028E-02   2.75562372E-04   2.76280116E-05
  -5.00000024E-04   2.25000014E-03   1.01066343E-02   2.22250121E-04   2.48981960E-05
  -5.00000024E-04   2.75000022E-03   1.00774802E-02   1.83514931E-04   2.26896318E-05
  -5.00000024E-04   3.25000007E-03   1.00579681E-02   1.54535504E-04   2.08591664E-05
  -5.00000024E-04   3.75000015E-03   1.00445868E-02   1.32246467E-04   1.93140932E-05
  -5.00000024E-04   4.25000023E-03   1.00350957E-02   1.14702576E-04   1.79901763E-05
  -5.00000024E-04   4.75000031E-03   1.00281620E-02   1.00625752E-04   1.68411570E-05
  -5.00000024E-04   5.25000039E-03   1.00229699E-02   8.91445670E-05   1.58328476E-05
  -5.00000024E-04   5.75000048E-03   1.00190025E-02   7.96470995E-05   1.49394873E-05
  -5.00000024E-04   6.25000009E-03   1.00159151E-02   7.16931390E-05   1.41412984E-05
  -5.00000024E-04   6.75000018E-03   1.00134760E-02   6.49588619E-05   1.34228640E-05
  -5.00000024E-04   7.25000026E-03   1.00115202E-02   5.92020842E-05   1.27719686E-05
  -5.00000024E-04   7.75000034E-03   1.00099342E-02   5.42383059E-05   1.21788162E-05
  -5.00000024E-04   8.24999996E-03   1.00086331E-02   4.99253401E-05   1.16354568E-05
  -5.00000024E-04   8.75000004E-03   1.00075547E-02   4.61514392E-05   1.11353602E-05
  -5.00000024E-04   9.25000012E-03   1.00066513E-02   4.28283565E-05   1.06731159E-05
  -5.00000024E-04   9.75000020E-03   1.00058913E-02   3.98854281E-05   1.02442027E-05
  -5.00000024E-04   1.02500003E-02   1.00052450E-02   3.72656250E-05   9.84480084E-06
  -5.00000024E-04   1.07500004E-02   1.00046918E-02   3.49222319E-05   9.47166518E-06
  -5.00000024E-04   1.12500004E-02   1.00042149E-02   3.28167262E-05   9.12202449E-06
  -5.00000024E-04   1.17500005E-02   1.00038033E-02   3.09171664E-05   8.79348772E-06
  -5.00000024E-04   1.22500006E-02   1.00034438E-02   2.91972738E-05   8.48398940E-06
  -5.00000024E-04   1.27500007E-02   1.00031290E-02   2.76343071E-05   8.19172965E-06
  -5.00000024E-04   1.32500008E-02   1.00028533E-02   2.62094363E-05   7.91513139E-06
  -5.00000024E-04   1.37500009E-02   1.00026084E-02   2.49066434E-05   7.65281220E-06
  -5.00000024E-04   1.42500009E-02   1.00023914E-02   2.37120621E-05   7.40354517E-06
  -5.00000024E-04   1.47500010E-02   1.00021977E-02   2.26138236E-05   7.16624481E-06
  -5.00000024E-04   1.52500011E-02   1.00020254E-02   2.16017343E-05   6.93994480E-06
  -5.00000024E-04   1.57500003E-02   1.00018708E-02   2.06667828E-05   6.72378474E-06
  -5.00000024E-04   1.62500013E-02   1.00017320E-02   1.98012276E-05   6.51698747E-06
  -5.00000024E-04   1.67500004E-02   1.00016054E-02   1.89985876E-05   6.31886223E-06
  -5.00000024E-04   1.72500014E-02   1.00014918E-02   1.82525382E-05   6.12876875E-06
  -5.00000024E-04   1.77500006E-02   1.00013884E-02   1.75580390E-05   5.94614949E-06
  -5.00000024E-04   1.82500016E-02   1.00012943E-02   1.69102896E-05   5.77048149E-06
  -5.00000024E-04   1.87500007E-02   1.00012086E-02   1.63052355E-05   5.60130093E-06
  -5.00000024E-04   1.92500018E-02   1.00011304E-02   1.57392424E-05   5.43817805E-06
  -5.00000024E-04   1.97500009E-02   1.00010578E-02   1.52089060E-05   5.28072087E-06
  -5.00000024E-04   2.02500001E-02   1.00009916E-02   1.47116052E-05   5.12857514E-06
  -5.00000024E-04   2.07500011E-02   1.00009311E-02   1.42445460E-05   4.98140662E-06
  -5.00000024E-04   2.12500002E-02   1.00008752E-02   1.38052092E-05   4.83891336E-06
  -5.00000024E-04   2.17500012E-02   1.00008231E-02   1.33916337E-05   4.70081886E-06
  -5.00000024E-04   2.22500004E-02   1.00007746E-02   1.30018952E-05   4.56686530E-06
  -5.00000024E-04   2.27500014E-02   1.00007290E-02   1.26345058E-05   4.43681392E-06
  -5.00000024E-04   2.32500006E-02   1.00006871E-02   1.22878018E-05   4.31043918E-06
  -5.00000024E-04   2.37500016E-02   1.00006480E-02   1.19603956E-05   4.18753552E-06
  -5.00000024E-04   2.42500007E-02   1.00006126E-02   1.16507345E-05   4.06790468E-06
  -5.00000024E-04   2.47500017E-02   1.00005791E-02   1.13579099E-05   3.95137249E-06
  -5.00000024E-04   2.52500009E-02   1.00005474E-02   1.10806077E-05   3.83776614E-06
  -5.00000024E-04   2.57500019E-02   1.00005176E-02   1.08177774E-05   3.72693603E-06
  -5.00000024E-04   2.62500010E-02   1.00004897E-02   1.05685940E-05   3.61873663E-06
  -5.00000024E-04   2.67500021E-02   1.00004645E-02   1.03321818E-05   3.51302947E-06
  -5.00000024E-04   2.72500012E-02   1.00004403E-02   1.01077785E-05   3.40968791E-06
  -5.00000024E-04   2.77500022E-02   1.00004170E-02   9.89471300E-06   3.30859166E-06
  -5.00000024E-04   2.82500014E-02   1.00003965E-02   9.69234407E-06   3.20962454E-06
  -5.00000024E-04   2.87500005E-02   1.00003760E-02   9.49999048E-06   3.11268400E-06
  -5.00000024E-04   2.92500015E-02   1.00003574E-02   9.31714385E-06   3.01766977E-06
  -5.00000024E-04   2.97500007E-02   1.00003388E-02   9.14334305E-06   2.92448385E-06
  -5.00000024E-04   3.02500017E-02   1.00003211E-02   8.97804330E-06   2.83303666E-06
  -5.00000024E-04   3.07500008E-02   1.00003053E-02   8.82077711E-06   2.74324088E-06
  -5.00000024E-04   3.12500000E-02   1.00002894E-02   8.67125800E-06   2.65502035E-06
  -5.00000024E-04   3.17500010E-02   1.00002745E-02   8.52897392E-06   2.56829549E-06
  -5.00000024E-04   3.22500020E-02   1.00002605E-02   8.39362565E-06   2.48299352E-06
  -5.00000024E-04   3.27500030E-02   1.00002475E-02   8.26494670E-06   2.39904398E-06
  -5.00000024E-04   3.32500003E-02   1.00002345E-02   8.14253235E-06   2.31638387E-06
  -5.00000024E-04   3.37500013E-02   1.00002233E-02   8.02623254E-06   2.23494658E-06
  -5.00000024E-04   3.42500024E-02   1.00002112E-02   7.91561069E-06   2.15467344E-06
  -5.00000024E-04   3.47500034E-02   1.00002009E-02   7.81050312E-06   2.07550579E-06
  -5.00000024E-04   3.52500007E-02   1.00001898E-02   7.71066061E-06   1.99739020E-06
  -5.00000024E-04   3.57500017E-02   1.00001795E-02   7.61598403E-06   1.92027323E-06
  -5.00000024E-04   3.62500027E-02   1.00001693E-02   7.52605501E-06   1.84410101E-06
  -5.00000024E-04   3.67500000E-02   1.00001600E-02   7.44080762E-06   1.76882872E-06
  -5.00000024E-04   3.72500010E-02   1.00001516E-02   7.36011316E-06   1.69440921E-06
  -5.00000024E-04   3.77500020E-02   1.00001432E-02   7.28373607E-06   1.62079675E-06
  -5.00000024E-04   3.82500030E-02   1.00001357E-02   7.21162496E-06   1.54794873E-06
  -5.00000024E-04   3.87500003E-02   1.00001264E-02   7.14350790E-06   1.47582034E-06
  -5.00000024E-04   3.92500013E-02   1.00001190E-02   7.07930030E-06   1.40437282E-06
  -5.00000024E-04   3.97500023E-02   1.00001115E-02   7.01889712E-06   1.33356730E-06
  -5.00000024E-04   4.02500033E-02   1.00001041E-02   6.96223469E-06   1.26336863E-06
  -5.00000024E-04   4.07500006E-02   1.00000985E-02   6.90915840E-06   1.19373385E-06
  -5.00000024E-04   4.12500016E-02   1.00000910E-02   6.85949863E-06   1.12462862E-06
  -5.00000024E-04   4.17500027E-02   1.00000845E-02   6.81331267E-06   1.05602294E-06
  -5.00000024E-04   4.22500037E-02   1.00000780E-02   6.77039179E-06   9.87878138E-07
  -5.00000024E-04   4.27500010E-02   1.00000724E-02   6.73082241E-06   9.20163075E-07
  -5.00000024E-04   4.32500020E-02   1.00000650E-02   6.69445626E-06   8.52842561E-07
  -5.00000024E-04   4.37500030E-02   1.00000594E-02   6.66103824E-06   7.85883230E-07
  -5.00000024E-04   4.42500003E-02   1.00000538E-02   6.63084802E-06   7.19260640E-07
  -5.00000024E-04   4.47500013E-02   1.00000482E-02   6.60361229E-06   6.52938411E-07
  -5.00000024E-04   4.52500023E-02   1.00000426E-02   6.57930150E-06   5.86889712E-07
  -5.00000024E-04   4.57500033E-02   1.00000370E-02   6.55798294E-06   5.21083564E-07
  -5.00000024E-04   4.62500006E-02   1.00000314E-02   6.53940833E-06   4.55487111E-07
  -5.00000024E-04   4.67500016E-02   1.00000277E-02   6.52344397E-06   3.90073183E-07
  -5.00000024E-04   4.72500026E-02   1.00000221E-02   6.51038272E-06   3.24820093E-07
  -5.00000024E-04   4.77500036E-02   1.00000184E-02   6.49978256E-06   2.59694247E-07
  -5.00000024E-04   4.82500009E-02   1.00000128E-02   6.49188587E-06   1.94676446E-07
  -5.00000024E-04   4.87500019E-02   1.00000091E-02   6.48646346E-06   1.29736662E-07
  -5.00000024E-04   4.92500030E-02   1.00000054E-02   6.48328569E-06   6.48498855E-08
  -5.00000024E-04   4.97500040E-02   1.00000054E-02   6.48328569E-06   3.24249427E-08
   5.00000024E-04  -2.50000012E-04   0.00000000       0.00000000       3.17105005E-05
   5.00000024E-04   2.50000012E-04   8.49243067E-03   1.14347506E-03   3.09305615E-05
   5.00000024E-04   7.50000007E-04   1.02078328E-02   1.21955585E-03   2.87109888E-05
   5.00000024E-04   1.25000009E-03   1.06515130E-02   1.08968630E-03   2.63224756E-05
   5.00000024E-04   1.75000005E-03   1.06344502E-02   9.21270519E-04   2.42068108E-05
   5.00000024E-04   2.25000014E-03   1.05101680E-02   7.72827130E-04   2.23833831E-05
   5.00000024E-04   2.75000022E-03   1.03923110E-02   6.54158590E-04   2.07980138E-05
   5.00000024E-04   3.25000007E-03   1.03025651E-02   5.60851477E-04   1.94060121E-05
   5.00000024E-04   3.75000015E-03   1.02373334E-02   4.86778241E-04   1.81754494E-05
   5.00000024E-04   4.25000023E-03   1.01896534E-02   4.27054096E-04   1.70817275E-05
   5.00000024E-04   4.75000031E-03   1.01541029E-02   3.78170866E-04   1.61046228E-05
   5.00000024E-04   5.25000039E-03   1.01270378E-02   3.37628560E-04   1.52271778E-05
   5.00000024E-04   5.75000048E-03   1.01060476E-02   3.03612935E-04   1.44351543E-05
   5.00000024E-04   6.25000009E-03   1.00895064E-02   2.74780672E-04   1.37166671E-05
   5.00000024E-04   6.75000018E-03   1.00762872E-02   2.50118028E-04   1.30617809E-05
   5.00000024E-04   7.25000026E-03   1.00655900E-02   2.28848905E-04   1.24621920E-05
   5.00000024E-04   7.75000034E-03   1.00568365E-02   2.10369733E-04   1.19109254E-05
   5.00000024E-04   8.24999996E-03   1.00496002E-02   1.94206645E-04   1.14021077E-05
   5.00000024E-04   8.75000004E-03   1.00435652E-02   1.79982322E-04   1.09307666E-05
   5.00000024E-04   9.25000012E-03   1.00384885E-02   1.67394275E-04   1.04926648E-05
   5.00000024E-04   9.75000020E-03   1.00341858E-02   1.56196591E-04   1.00841680E-05
   5.00000024E-04   1.02500003E-02   1.00305118E-02   1.46188831E-04   9.70216115E-06
   5.00000024E-04   1.07500004E-02   1.00273574E-02   1.37205439E-04   9.34394484E-06
   5.00000024E-04   1.12500004E-02   1.00246295E-02   1.29108725E-04   9.00717714E-06
   5.00000024E-04   1.17500005E-02   1.00222602E-02   1.21783996E-04   8.68981260E-06
   5.00000024E-04   1.22500006E-02   1.00201908E-02   1.15135088E-04   8.39006316E-06
   5.00000024E-04   1.27500007E-02   1.00183738E-02   1.09079192E-04   8.10634629E-06
   5.00000024E-04   1.32500008E-02   1.00167729E-02   1.03547442E-04   7.83727319E-06
   5.00000024E-04   1.37500009E-02   1.00153545E-02   9.84798389E-05   7.58160468E-06
   5.00000024E-04   1.42500009E-02   1.00140944E-02   9.38252706E-05   7.33824299E-06
   5.00000024E-04   1.47500010E-02   1.00129694E-02   8.95398771E-05   7.10620907E-06
   5.00000024E-04   1.52500011E-02   1.00119626E-02   8.55848775E-05   6.88462023E-06
   5.00000024E-04   1.57500003E-02   1.00110583E-02   8.19268898E-05   6.67268387E-06
   5.00000024E-04   1.62500013E-02   1.00102443E-02   7.85364391E-05   6.46968920E-06
   5.00000024E-04   1.67500004E-02   1.00095067E-02   7.53881759E-05   6.27499412E-06
   5.00000024E-04   1.72500014E-02   1.00088399E-02   7.24594938E-05   6.08801520E-06
   5.00000024E-04   1.77500006E-02   1.00082336E-02   6.97303403E-05   5.90822219E-06
   5.00000024E-04   1.82500016E-02   1.00076813E-02   6.71828675E-05   5.73513080E-06
   5.00000024E-04   1.87500007E-02   1.00071775E-02   6.48014029E-05   5.56829991E-06
   5.00000024E-04   1.92500018E-02   1.00067146E-02   6.25718894E-05   5.40733208E-06
   5.00000024E-04   1.97500009E-02   1.00062909E-02   6.04823108E-05   5.25185442E-06
   5.00000024E-04   2.02500001E-02   1.00059016E-02   5.85203961E-05   5.10151858E-06
   5.00000024E-04   2.07500011E-02   1.00055421E-02   5.66769522E-05   4.95602580E-06
   5.00000024E-04   2.12500002E-02   1.00052105E-02   5.49428405E-05   4.81508323E-06
   5.00000024E-04   2.17500012E-02   1.00049032E-02   5.33097154E-05   4.67841846E-06
   5.00000024E-04   2.22500004E-02   1.00046182E-02   5.17702865E-05   4.54578549E-06
   5.00000024E-04   2.27500014E-02   1.00043528E-02   5.03177398E-05   4.41695374E-06
   5.00000024E-04   2.32500006E-02   1.00041060E-02   4.89464510E-05   4.29171268E-06
   5.00000024E-04   2.37500016E-02   1.00038769E-02   4.76504756E-05   4.16985813E-06
   5.00000024E-04   2.42500007E-02   1.00036645E-02   4.64252116E-05   4.05120636E-06
   5.00000024E-04   2.47500017E-02   1.00034662E-02   4.52649292E-05   3.93558184E-06
   5.00000024E-04   2.52500009E-02   1.00032808E-02   4.41658995E-05   3.82283133E-06
   5.00000024E-04   2.57500019E-02   1.00031076E-02   4.31242952E-05   3.71280339E-06
   5.00000024E-04   2.62500010E-02   1.00029446E-02   4.21364857E-05   3.60535637E-06
   5.00000024E-04   2.67500021E-02   1.00027919E-02   4.11991423E-05   3.50035634E-06
   5.00000024E-04   2.72500012E-02   1.00026485E-02   4.03089871E-05   3.39767894E-06
   5.00000024E-04   2.77500022E-02   1.00025134E-02   3.94636409E-05   3.29720865E-06
   5.00000024E-04   2.82500014E-02   1.00023858E-02   3.86604952E-05   3.19883452E-06
   5.00000024E-04   2.87500005E-02   1.00022657E-02   3.78971454E-05   3.10245196E-06
   5.00000024E-04   2.92500015E-02   1.00021511E-02   3.71714268E-05   3.00796182E-06
   5.00000024E-04   2.97500007E-02   1.00020440E-02   3.64811240E-05   2.91527294E-06
   5.00000024E-04   3.02500017E-02   1.00019416E-02   3.58246980E-05   2.82429642E-06
   5.00000024E-04   3.07500008E-02   1.00018447E-02   3.52002935E-05   2.73494879E-06
   5.00000024E-04   3.12500000E-02   1.00017535E-02   3.46062407E-05   2.64714981E-06
   5.00000024E-04   3.17500010E-02   1.00016659E-02   3.40410297E-05   2.56082603E-06
   5.00000024E-04   3.22500020E-02   1.00015830E-02   3.35032746E-05   2.47590583E-06
   5.00000024E-04   3.27500030E-02   1.00015039E-02   3.29918548E-05   2.39232077E-06
   5.00000024E-04   3.32500003E-02   1.00014284E-02   3.25053552E-05   2.31000536E-06
   5.00000024E-04   3.37500013E-02   1.00013567E-02   3.20427753E-05   2.22889753E-06
   5.00000024E-04   3.42500024E-02   1.00012878E-02   3.16030746E-05   2.14893930E-06
   5.00000024E-04   3.47500034E-02   1.00012217E-02   3.11852818E-05   2.07007247E-06
   5.00000024E-04   3.52500007E-02   1.00011593E-02   3.07884693E-05   1.99224087E-06
   5.00000024E-04   3.57500017E-02   1.00010987E-02   3.04114965E-05   1.91539630E-06
   5.00000024E-04   3.62500027E-02   1.00010401E-02   3.00539996E-05   1.83949078E-06
   5.00000024E-04   3.67500000E-02   1.00009851E-02   2.97151055E-05   1.76447099E-06
   5.00000024E-04   3.72500010E-02   1.00009320E-02   2.93941193E-05   1.69029261E-06
   5.00000024E-04   3.77500020E-02   1.00008799E-02   2.90903408E-05   1.61691116E-06
   5.00000024E-04   3.82500030E-02   1.00008305E-02   2.88033298E-05   1.54428460E-06
   5.00000024E-04   3.87500003E-02   1.00007830E-02   2.85322894E-05   1.47237097E-06
   5.00000024E-04   3.92500013E-02   1.00007365E-02   2.82768597E-05   1.40113207E-06
   5.00000024E-04   3.97500023E-02   1.00006917E-02   2.80365512E-05   1.33052879E-06
   5.00000024E-04   4.02500033E-02   1.00006489E-02   2.78110147E-05   1.26052055E-06
   5.00000024E-04   4.07500006E-02   1.00006061E-02   2.75997209E-05   1.19107153E-06
   5.00000024E-04   4.12500016E-02   1.00005660E-02   2.74023005E-05   1.12214843E-06
   5.00000024E-04   4.17500027E-02   1.00005260E-02   2.72183788E-05   1.05371555E-06
   5.00000024E-04   4.22500037E-02   1.00004869E-02   2.70476721E-05   9.85740598E-07
   5.00000024E-04   4.27500010E-02   1.00004487E-02   2.68898093E-05   9.18188903E-07
   5.00000024E-04   4.32500020E-02   1.00004114E-02   2.67446267E-05   8.51031132E-07
   5.00000024E-04   4.37500030E-02   1.00003760E-02   2.66120242E-05   7.84236079E-07
   5.00000024E-04   4.42500003E-02   1.00003397E-02   2.64915707E-05   7.17767477E-07
   5.00000024E-04   4.47500013E-02   1.00003053E-02   2.63832371E-05   6.51597475E-07
   5.00000024E-04   4.52500023E-02   1.00002708E-02   2.62866124E-05   5.85695716E-07
   5.00000024E-04   4.57500033E-02   1.00002373E-02   2.62014637E-05   5.20032245E-07
   5.00000024E-04   4.62500006E-02   1.00002047E-02   2.61274108E-05   4.54580515E-07
   5.00000024E-04   4.67500016E-02   1.00001739E-02   2.60643901E-05   3.89309179E-07
   5.00000024E-04   4.72500026E-02   1.00001432E-02   2.60119759E-05   3.24190296E-07
   5.00000024E-04   4.77500036E-02   1.00001134E-02   2.59707685E-05   2.59203517E-07
   5.00000024E-04   4.82500009E-02   1.00000845E-02   2.59399476E-05   1.94312904E-07
   5.00000024E-04   4.87500019E-02   1.00000584E-02   2.59186090E-05   1.29493856E-07
   5.00000024E-04   4.92500030E-02   1.00000361E-02   2.59053741E-05   6.47225136E-08
   5.00000024E-04   4.97500040E-02   1.00000361E-02   2.59053741E-05   3.23612568E-08
   1.50000001E-03  -2.50000012E-04   0.00000000       0.00000000       2.18865098E-05
   1.50000001E-03   2.50000012E-04   7.27302395E-03   9.04458633E-04   2.24894266E-05
   1.50000001E-03   7.50000007E-04   9.64304619E-03   1.18685700E-03   2.21810969E-05
   1.50000001E-03   1.25000009E-03   1.06079355E-02   1.20865053E-03   2.13713793E-05
   1.50000001E-03   1.75000005E-03   1.08360220E-02   1.10786944E-03   2.03762502E-05
   1.50000001E-03   2.25000014E-03   1.07747121E-02   9.75601608E-04   1.93645519E-05
   1.50000001E-03   2.75000022E-03   1.06413001E-02   8.51110672E-04   1.83897337E-05
   1.50000001E-03   3.25000007E-03   1.05147902E-02   7.45001598E-04   1.74651123E-05
   1.50000001E-03   3.75000015E-03   1.04134912E-02   6.56926772E-04   1.65950241E-05
   1.50000001E-03   4.25000023E-03   1.03358803E-02   5.83816727E-04   1.57811901E-05
   1.50000001E-03   4.75000031E-03   1.02764945E-02   5.22624294E-04   1.50232900E-05
   1.50000001E-03   5.25000039E-03   1.02304732E-02   4.70909872E-04   1.43192574E-05
   1.50000001E-03   5.75000048E-03   1.01942597E-02   4.26807324E-04   1.36658809E-05
   1.50000001E-03   6.25000009E-03   1.01653496E-02   3.88889108E-04   1.30593880E-05
   1.50000001E-03   6.75000018E-03   1.01419734E-02   3.56048549E-04   1.24958569E-05
   1.50000001E-03   7.25000026E-03   1.01228599E-02   3.27415997E-04   1.19714668E-05
   1.50000001E-03   7.75000034E-03   1.01070721E-02   3.02300265E-04   1.14826344E-05
   1.50000001E-03   8.24999996E-03   1.00939125E-02   2.80146458E-04   1.10260662E-05
   1.50000001E-03   8.75000004E-03   1.00828530E-02   2.60504457E-04   1.05987692E-05
   1.50000001E-03   9.25000012E-03   1.00734876E-02   2.43006623E-04   1.01980522E-05
   1.50000001E-03   9.75000020E-03   1.00655016E-02   2.27349912E-04   9.82149322E-06
   1.50000001E-03   1.02500003E-02   1.00586480E-02   2.13283318E-04   9.46693217E-06
   1.50000001E-03   1.07500004E-02   1.00527322E-02   2.00596653E-04   9.13243366E-06
   1.50000001E-03   1.12500004E-02   1.00475959E-02   1.89114333E-04   8.81627057E-06
   1.50000001E-03   1.17500005E-02   1.00431163E-02   1.78687245E-04   8.51689674E-06
   1.50000001E-03   1.22500006E-02   1.00391889E-02   1.69188730E-04   8.23292339E-06
   1.50000001E-03   1.27500007E-02   1.00357309E-02   1.60511248E-04   7.96310815E-06
   1.50000001E-03   1.32500008E-02   1.00326715E-02   1.52562119E-04   7.70632687E-06
   1.50000001E-03   1.37500009E-02   1.00299558E-02   1.45261103E-04   7.46157411E-06
   1.50000001E-03   1.42500009E-02   1.00275371E-02   1.38539865E-04   7.22794312E-06
   1.50000001E-03   1.47500010E-02   1.00253727E-02   1.32337693E-04   7.00460259E-06
   1.50000001E-03   1.52500011E-02   1.00234319E-02   1.26602419E-04   6.79081541E-06
   1.50000001E-03   1.57500003E-02   1.00216856E-02   1.21288249E-04   6.58590216E-06
   1.50000001E-03   1.62500013E-02   1.00201089E-02   1.16354931E-04   6.38924894E-06
   1.50000001E-03   1.67500004E-02   1.00186812E-02   1.11766618E-04   6.20028777E-06
   1.50000001E-03   1.72500014E-02   1.00173866E-02   1.07492051E-04   6.01851525E-06
   1.50000001E-03   1.77500006E-02   1.00162076E-02   1.03503582E-04   5.84346208E-06
   1.50000001E-03   1.82500016E-02   1.00151328E-02   9.97760144E-05   5.67469033E-06
   1.50000001E-03   1.87500007E-02   1.00141503E-02   9.62876875E-05   5.51181165E-06
   1.50000001E-03   1.92500018E-02   1.00132488E-02   9.30186143E-05   5.35445952E-06
   1.50000001E-03   1.97500009E-02   1.00124208E-02   8.99508595E-05   5.20230151E-06
   1.50000001E-03   2.02500001E-02   1.00116599E-02   8.70686345E-05   5.05502703E-06
   1.50000001E-03   2.07500011E-02   1.00109568E-02   8.43579546E-05   4.91235141E-06
   1.50000001E-03   2.12500002E-02   1.00103067E-02   8.18062326E-05   4.77400954E-06
   1.50000001E-03   2.17500012E-02   1.00097051E-02   7.94013758E-05   4.63975084E-06
   1.50000001E-03   2.22500004E-02   1.00091463E-02   7.71334162E-05   4.50934886E-06
   1.50000001E-03   2.27500014E-02   1.00086275E-02   7.49918909E-05   4.38258348E-06
   1.50000001E-03   2.32500006E-02   1.00081442E-02   7.29686726E-05   4.25925919E-06
   1.50000001E-03   2.37500016E-02   1.00076953E-02   7.10552049E-05   4.13918815E-06
   1.50000001E-03   2.42500007E-02   1.00072781E-02   6.92443937E-05   4.02220030E-06
   1.50000001E-03   2.47500017E-02   1.00068878E-02   6.75291740E-05   3.90813648E-06
   1.50000001E-03   2.52500009E-02   1.00065237E-02   6.59038269E-05   3.79684639E-06
   1.50000001E-03   2.57500019E-02   1.00061819E-02   6.43625754E-05   3.68818587E-06
   1.50000001E-03   2.62500010E-02   1.00058615E-02   6.29003189E-05   3.58201919E-06
   1.50000001E-03   2.67500021E-02   1.00055598E-02   6.15122044E-05   3.47822311E-06
   1.50000001E-03   2.72500012E-02   1.00052767E-02   6.01939173E-05   3.37667939E-06
   1.50000001E-03   2.77500022E-02   1.00050094E-02   5.89410774E-05   3.27727525E-06
   1.50000001E-03   2.82500014E-02   1.00047579E-02   5.77505052E-05   3.17990862E-06
   1.50000001E-03   2.87500005E-02   1.00045204E-02   5.66186827E-05   3.08447511E-06
   1.50000001E-03   2.92500015E-02   1.00042950E-02   5.55421320E-05   2.99088106E-06
   1.50000001E-03   2.97500007E-02   1.00040818E-02   5.45181429E-05   2.89904006E-06
   1.50000001E-03   3.02500017E-02   1.00038815E-02   5.35438376E-05   2.80886775E-06
   1.50000001E-03   3.07500008E-02   1.00036897E-02   5.26168988E-05   2.72028274E-06
   1.50000001E-03   3.12500000E-02   1.00035081E-02   5.17347871E-05   2.63321022E-06
   1.50000001E-03   3.17500010E-02   1.00033358E-02   5.08954836E-05   2.54757447E-06
   1.50000001E-03   3.22500020E-02   1.00031709E-02   5.00968745E-05   2.46330683E-06
   1.50000001E-03   3.27500030E-02   1.00030145E-02   4.93370571E-05   2.38034590E-06
   1.50000001E-03   3.32500003E-02   1.00028645E-02   4.86140998E-05   2.29862258E-06
   1.50000001E-03   3.37500013E-02   1.00027220E-02   4.79264636E-05   2.21808159E-06
   1.50000001E-03   3.42500024E-02   1.00025861E-02   4.72727879E-05   2.13866429E-06
   1.50000001E-03   3.47500034E-02   1.00024557E-02   4.66514102E-05   2.06031359E-06
   1.50000001E-03   3.52500007E-02   1.00023309E-02   4.60612464E-05   1.98298312E-06
   1.50000001E-03   3.57500017E-02   1.00022098E-02   4.55008558E-05   1.90661501E-06
   1.50000001E-03   3.62500027E-02   1.00020953E-02   4.49692016E-05   1.83116322E-06
   1.50000001E-03   3.67500000E-02   1.00019844E-02   4.44649850E-05   1.75658238E-06
   1.50000001E-03   3.72500010E-02   1.00018783E-02   4.39872747E-05   1.68282543E-06
   1.50000001E-03   3.77500020E-02   1.00017758E-02   4.35353795E-05   1.60985098E-06
   1.50000001E-03   3.82500030E-02   1.00016762E-02   4.31080698E-05   1.53761482E-06
   1.50000001E-03   3.87500003E-02   1.00015802E-02   4.27048290E-05   1.46607999E-06
   1.50000001E-03   3.92500013E-02   1.00014890E-02   4.23246493E-05   1.39520489E-06
   1.50000001E-03   3.97500023E-02   1.00013986E-02   4.19670541E-05   1.32495325E-06
   1.50000001E-03   4.02500033E-02   1.00013120E-02   4.16311632E-05   1.25528391E-06
   1.50000001E-03   4.07500006E-02   1.00012282E-02   4.13164598E-05   1.18616765E-06
   1.50000001E-03   4.12500016E-02   1.00011462E-02   4.10224384E-05   1.11756810E-06
   1.50000001E-03   4.17500027E-02   1.00010661E-02   4.07485022E-05   1.04944854E-06
   1.50000001E-03   4.22500037E-02   1.00009879E-02   4.04943858E-05   9.81779294E-07
   1.50000001E-03   4.27500010E-02   1.00009125E-02   4.02594014E-05   9.14524435E-07
   1.50000001E-03   4.32500020E-02   1.00008370E-02   4.00431927E-05   8.47655144E-07
   1.50000001E-03   4.37500030E-02   1.00007644E-02   3.98455086E-05   7.81139534E-07
   1.50000001E-03   4.42500003E-02   1.00006927E-02   3.96658943E-05   7.14947646E-07
   1.50000001E-03   4.47500013E-02   1.00006228E-02   3.95041498E-05   6.49050264E-07
   1.50000001E-03   4.52500023E-02   1.00005548E-02   3.93598530E-05   5.83417659E-07
   1.50000001E-03   4.57500033E-02   1.00004869E-02   3.92326729E-05   5.18022830E-07
   1.50000001E-03   4.62500006E-02   1.00004207E-02   3.91224203E-05   4.52833774E-07
   1.50000001E-03   4.67500016E-02   1.00003574E-02   3.90291898E-05   3.87825679E-07
   1.50000001E-03   4.72500026E-02   1.00002931E-02   3.89522720E-05   3.22965633E-07
   1.50000001E-03   4.77500036E-02   1.00002326E-02   3.88908848E-05   2.58220723E-07
   1.50000001E-03   4.82500009E-02   1.00001739E-02   3.88447406E-05   1.93573541E-07
   1.50000001E-03   4.87500019E-02   1.00001208E-02   3.88125300E-05   1.28997101E-07
   1.50000001E-03   4.92500030E-02   1.00000771E-02   3.87915243E-05   6.44650981E-08
   1.50000001E-03   4.97500040E-02   1.00000771E-02   3.87915243E-05   3.22325491E-08
   2.50000018E-03  -2.50000012E-04   0.00000000       0.00000000       1.63931854E-05
   2.50000018E-03   2.50000012E-04   6.26139343E-03   6.60233898E-04   1.72029268E-05
   2.50000018E-03   7.50000007E-04   8.91582109E-03   1.02384773E-03   1.74521410E-05
   2.50000018E-03   1.25000009E-03   1.03156902E-02   1.16997166E-03   1.73485350E-05
   2.50000018E-03   1.75000005E-03   1.08548468E-02   1.16056006E-03   1.70047551E-05
   2.50000018E-03   2.25000014E-03   1.09432349E-02   1.07629935E-03   1.65337387E-05
   2.50000018E-03   2.75000022E-03   1.08525362E-02   9.70682711E-04   1.60048730E-05
   2.50000018E-03   3.25000007E-03   1.07187228E-02   8.68717325E-04   1.54508307E-05
   2.50000018E-03   3.75000015E-03   1.05939200E-02   7.78503018E-04   1.48885892E-05
   2.50000018E-03   4.25000023E-03   1.04912035E-02   7.00842298E-04   1.43295811E-05
   2.50000018E-03   4.75000031E-03   1.04096876E-02   6.34245982E-04   1.37822171E-05
   2.50000018E-03   5.25000039E-03   1.03451852E-02   5.76890947E-04   1.32523255E-05
   2.50000018E-03   5.75000048E-03   1.02936849E-02   5.27178810E-04   1.27434723E-05
   2.50000018E-03   6.25000009E-03   1.02520725E-02   4.83817537E-04   1.22574902E-05
   2.50000018E-03   6.75000018E-03   1.02180596E-02   4.45774582E-04   1.17949858E-05
   2.50000018E-03   7.25000026E-03   1.01899682E-02   4.12220776E-04   1.13557589E-05
   2.50000018E-03   7.75000034E-03   1.01665510E-02   3.82481550E-04   1.09391049E-05
   2.50000018E-03   8.24999996E-03   1.01468666E-02   3.56004195E-04   1.05440386E-05
   2.50000018E-03   8.75000004E-03   1.01301949E-02   3.32332915E-04   1.01694286E-05
   2.50000018E-03   9.25000012E-03   1.01159783E-02   3.11087031E-04   9.81406538E-06
   2.50000018E-03   9.75000020E-03   1.01037780E-02   2.91948003E-04   9.47674562E-06
   2.50000018E-03   1.02500003E-02   1.00932466E-02   2.74648075E-04   9.15628789E-06
   2.50000018E-03   1.07500004E-02   1.00841075E-02   2.58959481E-04   8.85156078E-06
   2.50000018E-03   1.12500004E-02   1.00761354E-02   2.44689058E-04   8.56149654E-06
   2.50000018E-03   1.17500005E-02   1.00691495E-02   2.31671424E-04   8.28509383E-06
   2.50000018E-03   1.22500006E-02   1.00630010E-02   2.19764537E-04   8.02141585E-06
   2.50000018E-03   1.27500007E-02   1.00575667E-02   2.08845697E-04   7.76959405E-06
   2.50000018E-03   1.32500008E-02   1.00527434E-02   1.98808833E-04   7.52882443E-06
   2.50000018E-03   1.37500009E-02   1.00484490E-02   1.89561717E-04   7.29836938E-06
   2.50000018E-03   1.42500009E-02   1.00446101E-02   1.81023759E-04   7.07753679E-06
   2.50000018E-03   1.47500010E-02   1.00411698E-02   1.73124907E-04   6.86570456E-06
   2.50000018E-03   1.52500011E-02   1.00380741E-02   1.65802674E-04   6.66227834E-06
   2.50000018E-03   1.57500003E-02   1.00352829E-02   1.59002680E-04   6.46672424E-06
   2.50000018E-03   1.62500013E-02   1.00327581E-02   1.52677079E-04   6.27854888E-06
   2.50000018E-03   1.67500004E-02   1.00304671E-02   1.46782389E-04   6.09728659E-06
   2.50000018E-03   1.72500014E-02   1.00283856E-02   1.41281227E-04   5.92252309E-06
   2.50000018E-03   1.77500006E-02   1.00264875E-02   1.36139133E-04   5.75385684E-06
   2.50000018E-03   1.82500016E-02   1.00247534E-02   1.31326466E-04   5.59093496E-06
   2.50000018E-03   1.87500007E-02   1.00231664E-02   1.26815954E-04   5.43341230E-06
   2.50000018E-03   1.92500018E-02   1.00217089E-02   1.22583326E-04   5.28097962E-06
   2.50000018E-03   1.97500009E-02   1.00203687E-02   1.18606389E-04   5.13334726E-06
   2.50000018E-03   2.02500001E-02   1.00191338E-02   1.14866438E-04   4.99024691E-06
   2.50000018E-03   2.07500011E-02   1.00179929E-02   1.11345267E-04   4.85142027E-06
   2.50000018E-03   2.12500002E-02   1.00169377E-02   1.08026397E-04   4.71663361E-06