 VARIABLES = "X", "Y", "U", "V", "P"
 ZONE I=         101 , J=         101
  -5.00000024E-04  -2.50000012E-04  -9.31322575E-10   0.00000000       3.19075957E-03
  -5.00000024E-04   2.50000012E-04   1.14746960E-02   1.81443226E-02   1.10906758E-03
  -5.00000024E-04   7.50000007E-04   1.27009368E-02   1.67100448E-02   9.34942160E-04
  -5.00000024E-04   1.25000009E-03   1.32138580E-02   1.50283556E-02   8.05167248E-04
  -5.00000024E-04   1.75000005E-03   1.33247040E-02   1.32984165E-02   7.07919011E-04
  -5.00000024E-04   2.25000014E-03   1.32167609E-02   1.16282012E-02   6.33426826E-04
  -5.00000024E-04   2.75000022E-03   1.29947960E-02   1.00736655E-02   5.74597274E-04
  -5.00000024E-04   3.25000007E-03   1.27179706E-02   8.66147224E-03   5.26629796E-04
  -5.00000024E-04   3.75000015E-03   1.24198683E-02   7.40170199E-03   4.86383680E-04
  -5.00000024E-04   4.25000023E-03   1.21200439E-02   6.29480463E-03   4.51824075E-04
  -5.00000024E-04   4.75000031E-03   1.18303299E-02   5.33541013E-03   4.21622099E-04
  -5.00000024E-04   5.25000039E-03   1.15582217E-02   4.51447489E-03   3.94889241E-04
  -5.00000024E-04   5.75000048E-03   1.13085965E-02   3.82056134E-03   3.71010450E-04
  -5.00000024E-04   6.25000009E-03   1.10845370E-02   3.24072223E-03   3.49537760E-04
  -5.00000024E-04   6.75000018E-03   1.08877253E-02   2.76118470E-03   3.30127776E-04
  -5.00000024E-04   7.25000026E-03   1.07185747E-02   2.36798427E-03   3.12503253E-04
  -5.00000024E-04   7.75000034E-03   1.05763245E-02   2.04753457E-03   2.96433573E-04
  -5.00000024E-04   8.24999996E-03   1.04591809E-02   1.78718544E-03   2.81722110E-04
  -5.00000024E-04   8.75000004E-03   1.03645241E-02   1.57557079E-03   2.68200005E-04
  -5.00000024E-04   9.25000012E-03   1.02892797E-02   1.40290009E-03   2.55723455E-04
  -5.00000024E-04   9.75000020E-03   1.02301575E-02   1.26102054E-03   2.44169758E-04
  -5.00000024E-04   1.02500003E-02   1.01840477E-02   1.14335050E-03   2.33435043E-04
  -5.00000024E-04   1.07500004E-02   1.01481890E-02   1.04469364E-03   2.23430819E-04
  -5.00000024E-04   1.12500004E-02   1.01202680E-02   9.61015467E-04   2.14081971E-04
  -5.00000024E-04   1.17500005E-02   1.00984313E-02   8.89217248E-04   2.05323653E-04
  -5.00000024E-04   1.22500006E-02   1.00812465E-02   8.26921023E-04   1.97099696E-04
  -5.00000024E-04   1.27500007E-02   1.00675989E-02   7.72310072E-04   1.89361177E-04
  -5.00000024E-04   1.32500008E-02   1.00566605E-02   7.23982113E-04   1.82064832E-04
  -5.00000024E-04   1.37500009E-02   1.00477887E-02   6.80866477E-04   1.75172871E-04
  -5.00000024E-04   1.42500009E-02   1.00405328E-02   6.42113271E-04   1.68651371E-04
  -5.00000024E-04   1.47500010E-02   1.00345267E-02   6.07069640E-04   1.62469820E-04
  -5.00000024E-04   1.52500011E-02   1.00295134E-02   5.75189595E-04   1.56601192E-04
  -5.00000024E-04   1.57500003E-02   1.00252917E-02   5.46071678E-04   1.51021988E-04
  -5.00000024E-04   1.62500013E-02   1.00216893E-02   5.19366120E-04   1.45709622E-04
  -5.00000024E-04   1.67500004E-02   1.00186160E-02   4.94766340E-04   1.40644290E-04
  -5.00000024E-04   1.72500014E-02   1.00159552E-02   4.72069340E-04   1.35809038E-04
  -5.00000024E-04   1.77500006E-02   1.00136641E-02   4.51041153E-04   1.31186593E-04
  -5.00000024E-04   1.82500016E-02   1.00116581E-02   4.31544584E-04   1.26763043E-04
  -5.00000024E-04   1.87500007E-02   1.00099156E-02   4.13391273E-04   1.22524216E-04
  -5.00000024E-04   1.92500018E-02   1.00083956E-02   3.96484480E-04   1.18458585E-04
  -5.00000024E-04   1.97500009E-02   1.00070573E-02   3.80706158E-04   1.14554656E-04
  -5.00000024E-04   2.02500001E-02   1.00058792E-02   3.65954125E-04   1.10801826E-04
  -5.00000024E-04   2.07500011E-02   1.00048557E-02   3.52130650E-04   1.07190819E-04
  -5.00000024E-04   2.12500002E-02   1.00039607E-02   3.39169987E-04   1.03713064E-04
  -5.00000024E-04   2.17500012E-02   1.00031663E-02   3.26996553E-04   1.00360463E-04
  -5.00000024E-04   2.22500004E-02   1.00024687E-02   3.15548328E-04   9.71257250E-05
  -5.00000024E-04   2.27500014E-02   1.00018634E-02   3.04774323E-04   9.40018872E-05
  -5.00000024E-04   2.32500006E-02   1.00013306E-02   2.94624304E-04   9.09826485E-05
  -5.00000024E-04   2.37500016E-02   1.00008780E-02   2.85030284E-04   8.80620210E-05
  -5.00000024E-04   2.42500007E-02   1.00004701E-02   2.75985512E-04   8.52350204E-05
  -5.00000024E-04   2.47500017E-02   1.00001264E-02   2.67422467E-04   8.24958697E-05
  -5.00000024E-04   2.52500009E-02   9.99982934E-03   2.59331951E-04   7.98405235E-05
  -5.00000024E-04   2.57500019E-02   9.99957044E-03   2.51676684E-04   7.72641652E-05
  -5.00000024E-04   2.62500010E-02   9.99935251E-03   2.44416413E-04   7.47625818E-05
  -5.00000024E-04   2.67500021E-02   9.99917276E-03   2.37545610E-04   7.23322155E-05
  -5.00000024E-04   2.72500012E-02   9.99902934E-03   2.31015132E-04   6.99690499E-05
  -5.00000024E-04   2.77500022E-02   9.99891479E-03   2.24811869E-04   6.76698910E-05
  -5.00000024E-04   2.82500014E-02   9.99881886E-03   2.18909059E-04   6.54317701E-05
  -5.00000024E-04   2.87500005E-02   9.99873783E-03   2.13303632E-04   6.32516458E-05
  -5.00000024E-04   2.92500015E-02   9.99868196E-03   2.07965000E-04   6.11265496E-05
  -5.00000024E-04   2.97500007E-02   9.99864098E-03   2.02883355E-04   5.90539930E-05
  -5.00000024E-04   3.02500017E-02   9.99861397E-03   1.98045134E-04   5.70314915E-05
  -5.00000024E-04   3.07500008E-02   9.99860093E-03   1.93437794E-04   5.50566765E-05
  -5.00000024E-04   3.12500000E-02   9.99860000E-03   1.89049475E-04   5.31272599E-05
  -5.00000024E-04   3.17500010E-02   9.99861304E-03   1.84866309E-04   5.12410770E-05
  -5.00000024E-04   3.22500020E-02   9.99863818E-03   1.80877541E-04   4.93961707E-05
  -5.00000024E-04   3.27500030E-02   9.99866985E-03   1.77069320E-04   4.75906345E-05
  -5.00000024E-04   3.32500003E-02   9.99869965E-03   1.73436740E-04   4.58228096E-05
  -5.00000024E-04   3.37500013E-02   9.99873690E-03   1.69972889E-04   4.40909098E-05
  -5.00000024E-04   3.42500024E-02   9.99877881E-03   1.66668717E-04   4.23932579E-05
  -5.00000024E-04   3.47500034E-02   9.99882352E-03   1.63517019E-04   4.07283187E-05
  -5.00000024E-04   3.52500007E-02   9.99887008E-03   1.60512369E-04   3.90946007E-05
  -5.00000024E-04   3.57500017E-02   9.99891944E-03   1.57648261E-04   3.74906303E-05
  -5.00000024E-04   3.62500027E-02   9.99897067E-03   1.54920242E-04   3.59150254E-05
  -5.00000024E-04   3.67500000E-02   9.99902375E-03   1.52322260E-04   3.43664396E-05
  -5.00000024E-04   3.72500010E-02   9.99907963E-03   1.49850341E-04   3.28436035E-05
  -5.00000024E-04   3.77500020E-02   9.99913365E-03   1.47499202E-04   3.13452765E-05
  -5.00000024E-04   3.82500030E-02   9.99918859E-03   1.45265280E-04   2.98702544E-05
  -5.00000024E-04   3.87500003E-02   9.99924168E-03   1.43145066E-04   2.84173911E-05
  -5.00000024E-04   3.92500013E-02   9.99929570E-03   1.41135315E-04   2.69855664E-05
  -5.00000024E-04   3.97500023E-02   9.99934692E-03   1.39232943E-04   2.55736741E-05
  -5.00000024E-04   4.02500033E-02   9.99939721E-03   1.37435709E-04   2.41806629E-05
  -5.00000024E-04   4.07500006E-02   9.99944564E-03   1.35741197E-04   2.28054832E-05
  -5.00000024E-04   4.12500016E-02   9.99949221E-03   1.34147602E-04   2.14471111E-05
  -5.00000024E-04   4.17500027E-02   9.99953691E-03   1.32652684E-04   2.01045477E-05
  -5.00000024E-04   4.22500037E-02   9.99957882E-03   1.31255234E-04   1.87768073E-05
  -5.00000024E-04   4.27500010E-02   9.99961980E-03   1.29953754E-04   1.74629185E-05
  -5.00000024E-04   4.32500020E-02   9.99965891E-03   1.28747168E-04   1.61619246E-05
  -5.00000024E-04   4.37500030E-02   9.99969617E-03   1.27634106E-04   1.48728650E-05
  -5.00000024E-04   4.42500003E-02   9.99973342E-03   1.26613857E-04   1.35948139E-05
  -5.00000024E-04   4.47500013E-02   9.99976788E-03   1.25686129E-04   1.23268492E-05
  -5.00000024E-04   4.52500023E-02   9.99980047E-03   1.24850456E-04   1.10680467E-05
  -5.00000024E-04   4.57500033E-02   9.99983121E-03   1.24106940E-04   9.81748690E-06
  -5.00000024E-04   4.62500006E-02   9.99985728E-03   1.23455611E-04   8.57425948E-06
  -5.00000024E-04   4.67500016E-02   9.99988243E-03   1.22895013E-04   7.33741308E-06
  -5.00000024E-04   4.72500026E-02   9.99990851E-03   1.22424448E-04   6.10603820E-06
  -5.00000024E-04   4.77500036E-02   9.99993552E-03   1.22043508E-04   4.87923307E-06
  -5.00000024E-04   4.82500009E-02   9.99996439E-03   1.21751262E-04   3.65609662E-06
  -5.00000024E-04   4.87500019E-02   9.99999512E-03   1.21546465E-04   2.43574095E-06
  -5.00000024E-04   4.92500030E-02   1.00000231E-02   1.21430334E-04   1.21729931E-06
  -5.00000024E-04   4.97500040E-02   1.00000231E-02   1.21430334E-04   6.08649657E-07
   5.00000024E-04  -2.50000012E-04   0.00000000       0.00000000       3.05414014E-03
   5.00000024E-04   2.50000012E-04   1.06721148E-02   3.53144258E-02   7.03653321E-04
   5.00000024E-04   7.50000007E-04   1.41685968E-02   3.57996374E-02   6.76761614E-04
   5.00000024E-04   1.25000009E-03   1.67464111E-02   3.55155580E-02   6.39661273E-04
   5.00000024E-04   1.75000005E-03   1.84410829E-02   3.45019475E-02   5.98983082E-04
   5.00000024E-04   2.25000014E-03   1.94014832E-02   3.29069793E-02   5.58766304E-04
   5.00000024E-04   2.75000022E-03   1.97975077E-02   3.08984611E-02   5.21145063E-04
   5.00000024E-04   3.25000007E-03   1.97798871E-02   2.86278594E-02   4.86903387E-04
   5.00000024E-04   3.75000015E-03   1.94692910E-02   2.62199230E-02   4.56066860E-04
   5.00000024E-04   4.25000023E-03   1.89580210E-02   2.37728041E-02   4.28331754E-04
   5.00000024E-04   4.75000031E-03   1.83155797E-02   2.13617831E-02   4.03308310E-04
   5.00000024E-04   5.25000039E-03   1.75944194E-02   1.90434642E-02   3.80625948E-04
   5.00000024E-04   5.75000048E-03   1.68345720E-02   1.68593358E-02   3.59968282E-04
   5.00000024E-04   6.25000009E-03   1.60669591E-02   1.48385856E-02   3.41070991E-04
   5.00000024E-04   6.75000018E-03   1.53156649E-02   1.30000170E-02   3.23712709E-04
   5.00000024E-04   7.25000026E-03   1.45993941E-02   1.13535421E-02   3.07707814E-04
   5.00000024E-04   7.75000034E-03   1.39322933E-02   9.90127120E-03   2.92898854E-04
   5.00000024E-04   8.24999996E-03   1.33244218E-02   8.63850303E-03   2.79152591E-04
   5.00000024E-04   8.75000004E-03   1.27820633E-02   7.55483564E-03   2.66359129E-04
   5.00000024E-04   9.25000012E-03   1.23079922E-02   6.63534552E-03   2.54425278E-04
   5.00000024E-04   9.75000020E-03   1.19016953E-02   5.86216664E-03   2.43273695E-04
   5.00000024E-04   1.02500003E-02   1.15598990E-02   5.21594286E-03   2.32837483E-04
   5.00000024E-04   1.07500004E-02   1.12771494E-02   4.67728544E-03   2.23057388E-04
   5.00000024E-04   1.12500004E-02   1.10465828E-02   4.22794418E-03   2.13879364E-04
   5.00000024E-04   1.17500005E-02   1.08606489E-02   3.85158136E-03   2.05253818E-04
   5.00000024E-04   1.22500006E-02   1.07118227E-02   3.53420805E-03   1.97135043E-04
   5.00000024E-04   1.27500007E-02   1.05931154E-02   3.26420693E-03   1.89481041E-04
   5.00000024E-04   1.32500008E-02   1.04984362E-02   3.03219096E-03   1.82253629E-04
   5.00000024E-04   1.37500009E-02   1.04226181E-02   2.83073634E-03   1.75418041E-04
   5.00000024E-04   1.42500009E-02   1.03615252E-02   2.65400112E-03   1.68942526E-04
   5.00000024E-04   1.47500010E-02   1.03118811E-02   2.49746162E-03   1.62798999E-04
   5.00000024E-04   1.52500011E-02   1.02711283E-02   2.35759467E-03   1.56961818E-04
   5.00000024E-04   1.57500003E-02   1.02373343E-02   2.23164004E-03   1.51407396E-04
   5.00000024E-04   1.62500013E-02   1.02089755E-02   2.11746851E-03   1.46115242E-04
   5.00000024E-04   1.67500004E-02   1.01849539E-02   2.01336155E-03   1.41065713E-04
   5.00000024E-04   1.72500014E-02   1.01643847E-02   1.91798678E-03   1.36242423E-04
   5.00000024E-04   1.77500006E-02   1.01466589E-02   1.83021731E-03   1.31628884E-04
   5.00000024E-04   1.82500016E-02   1.01312194E-02   1.74918410E-03   1.27211009E-04
   5.00000024E-04   1.87500007E-02   1.01177264E-02   1.67409715E-03   1.22975835E-04
   5.00000024E-04   1.92500018E-02   1.01058614E-02   1.60437636E-03   1.18911717E-04
   5.00000024E-04   1.97500009E-02   1.00953635E-02   1.53946481E-03   1.15007162E-04
   5.00000024E-04   2.02500001E-02   1.00860186E-02   1.47891371E-03   1.11252331E-04
   5.00000024E-04   2.07500011E-02   1.00777391E-02   1.42228720E-03   1.07637912E-04
   5.00000024E-04   2.12500002E-02   1.00703444E-02   1.36927736E-03   1.04155639E-04
   5.00000024E-04   2.17500012E-02   1.00637097E-02   1.31956022E-03   1.00797624E-04
   5.00000024E-04   2.22500004E-02   1.00577604E-02   1.27287232E-03   9.75564180E-05
   5.00000024E-04   2.27500014E-02   1.00524146E-02   1.22894847E-03   9.44251806E-05
   5.00000024E-04   2.32500006E-02   1.00476351E-02   1.18758227E-03   9.13982367E-05
   5.00000024E-04   2.37500016E-02   1.00433175E-02   1.14860327E-03   8.84698238E-05
   5.00000024E-04   2.42500007E-02   1.00394236E-02   1.11183431E-03   8.56339611E-05
   5.00000024E-04   2.47500017E-02   1.00359209E-02   1.07708736E-03   8.28856573E-05
   5.00000024E-04   2.52500009E-02   1.00327693E-02   1.04423007E-03   8.02204449E-05
   5.00000024E-04   2.57500019E-02   1.00299232E-02   1.01314718E-03   7.76341694E-05
   5.00000024E-04   2.62500010E-02   1.00273471E-02   9.83719714E-04   7.51226471E-05
   5.00000024E-04   2.67500021E-02   1.00250412E-02   9.55809839E-04   7.26819853E-05
   5.00000024E-04   2.72500012E-02   1.00229671E-02   9.29348869E-04   7.03088081E-05
   5.00000024E-04   2.77500022E-02   1.00211129E-02   9.04213462E-04   6.79994919E-05
   5.00000024E-04   2.82500014E-02   1.00194244E-02   8.80331558E-04   6.57510973E-05
   5.00000024E-04   2.87500005E-02   1.00178868E-02   8.57636391E-04   6.35607284E-05
   5.00000024E-04   2.92500015E-02   1.00165270E-02   8.36037390E-04   6.14253731E-05
   5.00000024E-04   2.97500007E-02   1.00152865E-02   8.15478095E-04   5.93426303E-05
   5.00000024E-04   3.02500017E-02   1.00141522E-02   7.95909844E-04   5.73100224E-05
   5.00000024E-04   3.07500008E-02   1.00131324E-02   7.77276058E-04   5.53251120E-05
   5.00000024E-04   3.12500000E-02   1.00122327E-02   7.59521150E-04   5.33857092E-05
   5.00000024E-04   3.17500010E-02   1.00114141E-02   7.42592150E-04   5.14897765E-05
   5.00000024E-04   3.22500020E-02   1.00106746E-02   7.26454426E-04   4.96354041E-05
   5.00000024E-04   3.27500030E-02   1.00100059E-02   7.11070024E-04   4.78206421E-05
   5.00000024E-04   3.32500003E-02   1.00093968E-02   6.96404953E-04   4.60435986E-05
   5.00000024E-04   3.37500013E-02   1.00088641E-02   6.82414160E-04   4.43024765E-05
   5.00000024E-04   3.42500024E-02   1.00083649E-02   6.69062720E-04   4.25958206E-05
   5.00000024E-04   3.47500034E-02   1.00078983E-02   6.56331773E-04   4.09221029E-05
   5.00000024E-04   3.52500007E-02   1.00074755E-02   6.44195825E-04   3.92797738E-05
   5.00000024E-04   3.57500017E-02   1.00070871E-02   6.32630778E-04   3.76673706E-05
   5.00000024E-04   3.62500027E-02   1.00067379E-02   6.21613348E-04   3.60834565E-05
   5.00000024E-04   3.67500000E-02   1.00064231E-02   6.11120486E-04   3.45267217E-05
   5.00000024E-04   3.72500010E-02   1.00061167E-02   6.01132982E-04   3.29959403E-05
   5.00000024E-04   3.77500020E-02   1.00058326E-02   5.91634773E-04   3.14898862E-05
   5.00000024E-04   3.82500030E-02   1.00055616E-02   5.82607812E-04   3.00073298E-05
   5.00000024E-04   3.87500003E-02   1.00053027E-02   5.74040809E-04   2.85471397E-05
   5.00000024E-04   3.92500013E-02   1.00050559E-02   5.65920665E-04   2.71081772E-05
   5.00000024E-04   3.97500023E-02   1.00048222E-02   5.58234693E-04   2.56893327E-05
   5.00000024E-04   4.02500033E-02   1.00045959E-02   5.50973113E-04   2.42895185E-05
   5.00000024E-04   4.07500006E-02   1.00043770E-02   5.44125389E-04   2.29076686E-05
   5.00000024E-04   4.12500016E-02   1.00041628E-02   5.37683431E-04   2.15427735E-05
   5.00000024E-04   4.17500027E-02   1.00039486E-02   5.31640137E-04   2.01938237E-05
   5.00000024E-04   4.22500037E-02   1.00037344E-02   5.25988580E-04   1.88598242E-05
   5.00000024E-04   4.27500010E-02   1.00035211E-02   5.20722708E-04   1.75397981E-05
   5.00000024E-04   4.32500020E-02   1.00033060E-02   5.15838212E-04   1.62327815E-05
   5.00000024E-04   4.37500030E-02   1.00030899E-02   5.11330378E-04   1.49378257E-05
   5.00000024E-04   4.42500003E-02   1.00028738E-02   5.07196353E-04   1.36539802E-05
   5.00000024E-04   4.47500013E-02   1.00026587E-02   5.03432122E-04   1.23803038E-05
   5.00000024E-04   4.52500023E-02   1.00024417E-02   5.00035821E-04   1.11158770E-05
   5.00000024E-04   4.57500033E-02   1.00022200E-02   4.97006346E-04   9.85979113E-06
   5.00000024E-04   4.62500006E-02   1.00019760E-02   4.94352193E-04   8.61119224E-06
   5.00000024E-04   4.67500016E-02   1.00017237E-02   4.92066669E-04   7.36906804E-06
   5.00000024E-04   4.72500026E-02   1.00014806E-02   4.90144943E-04   6.13242128E-06
   5.00000024E-04   4.77500036E-02   1.00012431E-02   4.88585792E-04   4.90033744E-06
   5.00000024E-04   4.82500009E-02   1.00010168E-02   4.87384619E-04   3.67189455E-06
   5.00000024E-04   4.87500019E-02   1.00008156E-02   4.86531761E-04   2.44616763E-06
   5.00000024E-04   4.92500030E-02   1.00006647E-02   4.86000470E-04   1.22221684E-06
   5.00000024E-04   4.97500040E-02   1.00006647E-02   4.86000470E-04   6.11108419E-07
   1.50000001E-03  -2.50000012E-04   0.00000000       0.00000000       2.19629426E-03
   1.50000001E-03   2.50000012E-04   8.36838502E-03   3.03740352E-02   4.62796743E-04
   1.50000001E-03   7.50000007E-04   1.15205627E-02   3.15970927E-02   4.60936280E-04
   1.50000001E-03   1.25000009E-03   1.44403679E-02   3.26524451E-02   4.55074565E-04
   1.50000001E-03   1.75000005E-03   1.69303007E-02   3.33138295E-02   4.46495134E-04
   1.50000001E-03   2.25000014E-03   1.88903622E-02   3.34790647E-02   4.35654569E-04
   1.50000001E-03   2.75000022E-03   2.03063898E-02   3.31378207E-02   4.22944897E-04
   1.50000001E-03   3.25000007E-03   2.12189257E-02   3.23348790E-02   4.08872962E-04
   1.50000001E-03   3.75000015E-03   2.16948576E-02   3.11418902E-02   3.93969240E-04
   1.50000001E-03   4.25000023E-03   2.18084976E-02   2.96395645E-02   3.78692232E-04
   1.50000001E-03   4.75000031E-03   2.16314122E-02   2.79075466E-02   3.63392639E-04
   1.50000001E-03   5.25000039E-03   2.12279949E-02   2.60195192E-02   3.48322268E-04
   1.50000001E-03   5.75000048E-03   2.06542313E-02   2.40412168E-02   3.33654461E-04
   1.50000001E-03   6.25000009E-03   1.99580435E-02   2.20298525E-02   3.19504121E-04
   1.50000001E-03   6.75000018E-03   1.91801526E-02   2.00343449E-02   3.05942202E-04
   1.50000001E-03   7.25000026E-03   1.83550902E-02   1.80957019E-02   2.93006422E-04
   1.50000001E-03   7.75000034E-03   1.75120533E-02   1.62473917E-02   2.80708831E-04
   1.50000001E-03   8.24999996E-03   1.66755412E-02   1.45156421E-02   2.69039941E-04
   1.50000001E-03   8.75000004E-03   1.58658810E-02   1.29197128E-02   2.57978070E-04
   1.50000001E-03   9.25000012E-03   1.50994230E-02   1.14720045E-02   2.47491407E-04
   1.50000001E-03   9.75000020E-03   1.43887941E-02   1.01784160E-02   2.37545770E-04
   1.50000001E-03   1.02500003E-02   1.37429237E-02   9.03871376E-03   2.28107063E-04
   1.50000001E-03   1.07500004E-02   1.31671550E-02   8.04730132E-03   2.19144742E-04
   1.50000001E-03   1.12500004E-02   1.26634091E-02   7.19418097E-03   2.10631290E-04
   1.50000001E-03   1.17500005E-02   1.22304829E-02   6.46620803E-03   2.02543437E-04
   1.50000001E-03   1.22500006E-02   1.18644768E-02   5.84840588E-03   1.94859211E-04
   1.50000001E-03   1.27500007E-02   1.15594799E-02   5.32528339E-03   1.87558355E-04
   1.50000001E-03   1.32500008E-02   1.13083031E-02   4.88187931E-03   1.80620045E-04
   1.50000001E-03   1.37500009E-02   1.11032333E-02   4.50451300E-03   1.74023648E-04
   1.50000001E-03   1.42500009E-02   1.09366644E-02   4.18125046E-03   1.67748702E-04
   1.50000001E-03   1.47500010E-02   1.08015472E-02   3.90200876E-03   1.61774748E-04
   1.50000001E-03   1.52500011E-02   1.06917303E-02   3.65856104E-03   1.56082766E-04
   1.50000001E-03   1.57500003E-02   1.06020160E-02   3.44426790E-03   1.50653505E-04
   1.50000001E-03   1.62500013E-02   1.05281444E-02   3.25387809E-03   1.45469865E-04
   1.50000001E-03   1.67500004E-02   1.04667731E-02   3.08325421E-03   1.40515069E-04
   1.50000001E-03   1.72500014E-02   1.04152756E-02   2.92916456E-03   1.35774404E-04
   1.50000001E-03   1.77500006E-02   1.03716198E-02   2.78906478E-03   1.31233654E-04
   1.50000001E-03   1.82500016E-02   1.03341974E-02   2.66092643E-03   1.26879575E-04
   1.50000001E-03   1.87500007E-02   1.03018750E-02   2.54314067E-03   1.22700585E-04
   1.50000001E-03   1.92500018E-02   1.02736913E-02   2.43441155E-03   1.18685464E-04
   1.50000001E-03   1.97500009E-02   1.02489293E-02   2.33369088E-03   1.14824245E-04
   1.50000001E-03   2.02500001E-02   1.02270115E-02   2.24009203E-03   1.11107489E-04
   1.50000001E-03   2.07500011E-02   1.02075692E-02   2.15285970E-03   1.07526699E-04
   1.50000001E-03   2.12500002E-02   1.01902019E-02   2.07141228E-03   1.04073988E-04
   1.50000001E-03   2.17500012E-02   1.01746116E-02   1.99516863E-03   1.00741629E-04
   1.50000001E-03   2.22500004E-02   1.01605803E-02   1.92371011E-03   9.75231451E-05
   1.50000001E-03   2.27500014E-02   1.01479366E-02   1.85659062E-03   9.44118001E-05
   1.50000001E-03   2.32500006E-02   1.01365112E-02   1.79346779E-03   9.14020784E-05
   1.50000001E-03   2.37500016E-02   1.01261437E-02   1.73404487E-03   8.84881447E-05
   1.50000001E-03   2.42500007E-02   1.01167168E-02   1.67801278E-03   8.56648403E-05
   1.50000001E-03   2.47500017E-02   1.01081599E-02   1.62515289E-03   8.29277124E-05
   1.50000001E-03   2.52500009E-02   1.01003777E-02   1.57517544E-03   8.02716822E-05
   1.50000001E-03   2.57500019E-02   1.00932587E-02   1.52794179E-03   7.76934030E-05
   1.50000001E-03   2.62500010E-02   1.00867730E-02   1.48322922E-03   7.51881744E-05
   1.50000001E-03   2.67500021E-02   1.00808544E-02   1.44084531E-03   7.27527513E-05
   1.50000001E-03   2.72500012E-02   1.00754406E-02   1.40066212E-03   7.03837868E-05
   1.50000001E-03   2.77500022E-02   1.00705065E-02   1.36253657E-03   6.80778612E-05
   1.50000001E-03   2.82500014E-02   1.00659570E-02   1.32631953E-03   6.58319259E-05
   1.50000001E-03   2.87500005E-02   1.00617893E-02   1.29189854E-03   6.36434561E-05
   1.50000001E-03   2.92500015E-02   1.00579653E-02   1.25917327E-03   6.15094104E-05
   1.50000001E-03   2.97500007E-02   1.00544598E-02   1.22803729E-03   5.94272751E-05
   1.50000001E-03   3.02500017E-02   1.00511983E-02   1.19839888E-03   5.73947509E-05
   1.50000001E-03   3.07500008E-02   1.00482022E-02   1.17017096E-03   5.54095095E-05
   1.50000001E-03   3.12500000E-02   1.00454437E-02   1.14327762E-03   5.34694518E-05
   1.50000001E-03   3.17500010E-02   1.00428853E-02   1.11765810E-03   5.15725987E-05
   1.50000001E-03   3.22500020E-02   1.00405440E-02   1.09323231E-03   4.97167748E-05
   1.50000001E-03   3.27500030E-02   1.00383442E-02   1.06994528E-03   4.79003502E-05
   1.50000001E-03   3.32500003E-02   1.00362981E-02   1.04774558E-03   4.61214368E-05
   1.50000001E-03   3.37500013E-02   1.00344215E-02   1.02656707E-03   4.43783792E-05
   1.50000001E-03   3.42500024E-02   1.00326445E-02   1.00637635E-03   4.26697225E-05
   1.50000001E-03   3.47500034E-02   1.00309830E-02   9.87127190E-04   4.09937093E-05
   1.50000001E-03   3.52500007E-02   1.00294361E-02   9.68767563E-04   3.93488663E-05
   1.50000001E-03   3.57500017E-02   1.00279618E-02   9.51265218E-04   3.77339602E-05
   1.50000001E-03   3.62500027E-02   1.00265695E-02   9.34591866E-04   3.61476123E-05
   1.50000001E-03   3.67500000E-02   1.00252638E-02   9.18719568E-04   3.45884400E-05
   1.50000001E-03   3.72500010E-02   1.00240353E-02   9.03614564E-04   3.30551047E-05
   1.50000001E-03   3.77500020E-02   1.00228507E-02   8.89243558E-04   3.15463985E-05
   1.50000001E-03   3.82500030E-02   1.00217080E-02   8.75586062E-04   3.00612701E-05
   1.50000001E-03   3.87500003E-02   1.00206118E-02   8.62624496E-04   2.85984788E-05
   1.50000001E-03   3.92500013E-02   1.00195613E-02   8.50337441E-04   2.71568897E-05
   1.50000001E-03   3.97500023E-02   1.00185517E-02   8.38707201E-04   2.57353931E-05
   1.50000001E-03   4.02500033E-02   1.00175776E-02   8.27715674E-04   2.43329159E-05
   1.50000001E-03   4.07500006E-02   1.00166313E-02   8.17346619E-04   2.29484231E-05
   1.50000001E-03   4.12500016E-02   1.00157000E-02   8.07589036E-04   2.15809287E-05
   1.50000001E-03   4.17500027E-02   1.00147855E-02   7.98431225E-04   2.02294214E-05
   1.50000001E-03   4.22500037E-02   1.00138858E-02   7.89862883E-04   1.88929171E-05
   1.50000001E-03   4.27500010E-02   1.00129982E-02   7.81876093E-04   1.75704408E-05
   1.50000001E-03   4.32500020E-02   1.00121163E-02   7.74464279E-04   1.62610340E-05
   1.50000001E-03   4.37500030E-02   1.00112353E-02   7.67621212E-04   1.49637453E-05
   1.50000001E-03   4.42500003E-02   1.00103542E-02   7.61342642E-04   1.36776080E-05
   1.50000001E-03   4.47500013E-02   1.00094769E-02   7.55623565E-04   1.24016524E-05
   1.50000001E-03   4.52500023E-02   1.00086089E-02   7.50458450E-04   1.11349163E-05
   1.50000001E-03   4.57500033E-02   1.00077447E-02   7.45842699E-04   9.87647218E-06
   1.50000001E-03   4.62500006E-02   1.00068729E-02   7.41773052E-04   8.62541037E-06
   1.50000001E-03   4.67500016E-02   1.00059947E-02   7.38252944E-04   7.38091467E-06
   1.50000001E-03   4.72500026E-02   1.00051118E-02   7.35289534E-04   6.14208557E-06
   1.50000001E-03   4.77500036E-02   1.00042205E-02   7.32881483E-04   4.90794264E-06
   1.50000001E-03   4.82500009E-02   1.00033740E-02   7.31011969E-04   3.67741109E-06
   1.50000001E-03   4.87500019E-02   1.00026065E-02   7.29653984E-04   2.44954958E-06
   1.50000001E-03   4.92500030E-02   1.00020356E-02   7.28735758E-04   1.22339134E-06
   1.50000001E-03   4.97500040E-02   1.00020356E-02   7.28735758E-04   6.11695668E-07
   2.50000018E-03  -2.50000012E-04   0.00000000       0.00000000       1.59709831E-03
   2.50000018E-03   2.50000012E-04   6.61943946E-03   2.57496722E-02   3.17266735E-04
   2.50000018E-03   7.50000007E-04   9.15747508E-03   2.68529560E-02   3.19098821E-04
   2.50000018E-03   1.25000009E-03   1.17728245E-02   2.81103626E-02   3.19731684E-04
   2.50000018E-03   1.75000005E-03   1.43284509E-02   2.93372683E-02   3.19911342E-04
   2.50000018E-03   2.25000014E-03   1.66806746E-02   3.03706210E-02   3.19830375E-04
   2.50000018E-03   2.75000022E-03   1.87169332E-02   3.10963020E-02   3.19242507E-04
   2.50000018E-03   3.25000007E-03   2.03716010E-02   3.14531736E-02   3.17781174E-04
   2.50000018E-03   3.75000015E-03   2.16232035E-02   3.14242542E-02   3.15180077E-04
   2.50000018E-03   4.25000023E-03   2.24829614E-02   3.10241077E-02   3.11341777E-04
   2.50000018E-03   4.75000031E-03   2.29825154E-02   3.02873272E-02   3.06313217E-04
   2.50000018E-03   5.25000039E-03   2.31640562E-02   2.92596389E-02   3.00232903E-04
   2.50000018E-03   5.75000048E-03   2.30736695E-02   2.79917791E-02   2.93285208E-04
   2.50000018E-03   6.25000009E-03   2.27573402E-02   2.65354645E-02   2.85668240E-04
   2.50000018E-03   6.75000018E-03   2.22587269E-02   2.49409545E-02   2.77572195E-04
   2.50000018E-03   7.25000026E-03   2.16181688E-02   2.32556500E-02   2.69172364E-04
   2.50000018E-03   7.75000034E-03   2.08723042E-02   2.15232223E-02   2.60619912E-04
   2.50000018E-03   8.24999996E-03   2.00540330E-02   1.97831411E-02   2.52039608E-04
   2.50000018E-03   8.75000004E-03   1.91927031E-02   1.80703737E-02   2.43532471E-04
   2.50000018E-03   9.25000012E-03   1.83141977E-02   1.64151248E-02   2.35173182E-04
   2.50000018E-03   9.75000020E-03   1.74411163E-02   1.48425633E-02   2.27014825E-04
   2.50000018E-03   1.02500003E-02   1.65928304E-02   1.33726634E-02   2.19091191E-04
   2.50000018E-03   1.07500004E-02   1.57854576E-02   1.20199937E-02   2.11421313E-04
   2.50000018E-03   1.12500004E-02   1.50318891E-02   1.07936338E-02   2.04013108E-04
   2.50000018E-03   1.17500005E-02   1.43416449E-02   9.69727617E-03   1.96868044E-04
   2.50000018E-03   1.22500006E-02   1.37208458E-02   8.72964598E-03   1.89983955E-04
   2.50000018E-03   1.27500007E-02   1.31723117E-02   7.88506027E-03   1.83357217E-04
   2.50000018E-03   1.32500008E-02   1.26956971E-02   7.15446193E-03   1.76984089E-04
   2.50000018E-03   1.37500009E-02   1.22879809E-02   6.52642641E-03   1.70860003E-04
   2.50000018E-03   1.42500009E-02   1.19439382E-02   5.98832034E-03   1.64980127E-04
   2.50000018E-03   1.47500010E-02   1.16568785E-02   5.52735664E-03   1.59338335E-04
   2.50000018E-03   1.52500011E-02   1.14193447E-02   5.13139507E-03   1.53927103E-04
   2.50000018E-03   1.57500003E-02   1.12237632E-02   4.78945393E-03   1.48737803E-04
   2.50000018E-03   1.62500013E-02   1.10629667E-02   4.49206401E-03   1.43760873E-04
   2.50000018E-03   1.67500004E-02   1.09305354E-02   4.23123594E-03   1.38985750E-04
   2.50000018E-03   1.72500014E-02   1.08209513E-02   4.00043838E-03   1.34401867E-04
   2.50000018E-03   1.77500006E-02   1.07296510E-02   3.79443914E-03   1.29999578E-04
   2.50000018E-03   1.82500016E-02   1.06529016E-02   3.60903423E-03   1.25768158E-04
   2.50000018E-03   1.87500007E-02   1.05877928E-02   3.44091933E-03   1.21698395E-04
   2.50000018E-03   1.92500018E-02   1.05320038E-02   3.28746950E-03   1.17780757E-04
   2.50000018E-03   1.97500009E-02   1.04837222E-02   3.14661069E-03   1.14006776E-04
   2.50000018E-03   2.02500001E-02   1.04415957E-02   3.01666185E-03   1.10368121E-04
   2.50000018E-03   2.07500011E-02   1.04045132E-02   2.89630890E-03   1.06857806E-04
   2.50000018E-03   2.12500002E-02   1.03716832E-02   2.78442400E-03   1.03468046E-04